,solute,solute SMILES,solvent,solvent SMILES,pka,ref
448,4-Cl-C6H4-C(=NTf)NHTf,skip,MeCN,,5.2415,
449,HBr,Br,MeCN,,5.5,
450,"2,4,6-(SO2F)3-Phenol",skip,MeCN,,5.2515,
451,(C6F5SO2)2NH,skip,MeCN,,5.115,
452,4-Cl-C6H4SO2NHTf,skip,MeCN,,5.0215,
453,4-Cl-C6H4SO(=NTf)NHTos,skip,MeCN,,4.8115,
454,4-NO2-C6H4C(=NTf)NHTf,skip,MeCN,,4.6715,
455,"2,4,6-Tf3-Phenol",skip,MeCN,,4.4815,
456,(CN2)2C=C(CN)OH,skip,MeCN,,4.39,
457,4-NO2-C6H4SO2NHTf,skip,MeCN,,4.0815,
458,4-Cl-C6H4SO(=NTf)NHSO2-C6H4-4-Cl,skip,MeCN,,4.0315,
459,"2,4-(NO2)2-C6H3SO3H",skip,MeCN,,3.99,
460,"2,3,5-tricyano-cyclopentadiene",skip,MeCN,,3.6815,
461,4-Cl-C6H4-SO(=NTf)NH--SO2C6H4-4-NO2,skip,MeCN,,3.3315,
462,HI,I,MeCN,,2.8,