,Solute SMILES,Solvent SMILES,Solute CAS,Solute IUPAC,pKa (avg),pKa (all),Source
2442,Cc1cccc(c1[NH3+:8])N(=O)=O,O,0,0,-0.71,['-0.71'],['hunt_et_al']
2443,c1cc(ccc1Cc2ccc(cc2)N(=O)=O)[NH3+:14],O,0,0,4.45,['4.45'],['hunt_et_al']
2444,c1cc(ccc1[NH3+:9])OC(C(F)(F)F)(F)F,O,0,0,3.78,['3.78'],['hunt_et_al']
2445,COC(=O)CCC[NH3+:6],O,0,0,9.838,['9.838'],['hunt_et_al']
2446,CCOC(=O)CCCC[NH3+:8],O,0,0,10.5,['10.5'],['hunt_et_al']
2447,C([C@@H]([C@@H]1C(=C(C(=O)O1)[OH:9])O)O)O,O,0,0,4.17,['4.17'],['hunt_et_al']
2448,C([C@@H]([C@@H]1C(=C(C(=O)O1)O)[OH:10])O)O,O,0,0,4.17,['4.17'],['hunt_et_al']
2449,C([C@@H]([C@@H]1C(=C(C(=O)O1)[O-])[OH:10])O)O,O,0,0,11.57,['11.57'],['hunt_et_al']
2450,C([C@@H]([C@@H]1C(=C(C(=O)O1)[OH:9])[O-])O)O,O,0,0,11.57,['11.57'],['hunt_et_al']
2451,c1ccc(cc1)C(=O)NCC(=O)[OH:13],O,0,0,3.62,['3.62'],['hunt_et_al']
2452,C(=O)(C(F)(F)Cl)[OH:4],O,0,0,0.46,['0.46'],['hunt_et_al']
2453,C[C@@](C#N)(c1ccccc1)C(=O)[OH:13],O,0,0,2.29,['2.29'],['hunt_et_al']
2454,c1cc(cc(c1)[OH:9])C#N,O,0,0,8.61,['8.61'],['hunt_et_al']
2455,CCOc1cccc(c1)[OH:9],O,0,0,9.655,['9.655'],['hunt_et_al']
2456,c1cc(ccc1C=O)[OH:9],O,0,0,7.62,['7.62'],['hunt_et_al']
2457,C(CC(=O)[OH:6])CO,O,0,0,4.71,['4.71'],['hunt_et_al']
2458,c1cc(c(cc1N(=O)=O)C(=O)[OH:13])O,O,0,0,2.12,['2.12'],['hunt_et_al']
2459,C[NH2+:4]CCO,O,0,0,9.88,['9.88'],['hunt_et_al']
2460,C[P@@H](=O)[OH:3],O,0,0,3.08,['3.08'],['hunt_et_al']
2461,CS(=O)(=O)CC(=O)[OH:7],O,0,0,2.36,['2.36'],['hunt_et_al']
2462,C(=C(F)F)(C(=O)[OH:5])F,O,0,0,1.79,['1.79'],['hunt_et_al']
2463,c1ccc2c(c1)c(c[nH]2)CC[NH3+:12],O,0,0,10.2,['10.2'],['hunt_et_al']
2464,CC(=C)C(=O)[OH:6],O,0,0,4.66,['4.66'],['hunt_et_al']
2465,COc1ccc(cc1)CCC(=O)[OH:12],O,0,0,4.69,['4.69'],['hunt_et_al']
2466,COc1cccc(c1)C[NH3+:9],O,0,0,9.15,['9.15'],['hunt_et_al']
2467,Cc1ccc(cc1)C[NH3+:9],O,0,0,9.36,['9.36'],['hunt_et_al']
2468,C1CC1[NH3+:4],O,0,0,9.1,['9.1'],['hunt_et_al']
2469,CCc1ccc(cc1)[OH:9],O,0,0,10.0,['10.0'],['hunt_et_al']
2470,C[NH+:11](C)CCc1ccc(cc1)O,O,0,0,9.78,['9.78'],['hunt_et_al']
2471,Cc1cnc2c(c1C)cccc2[OH:13],O,0,0,10.05,['10.05'],['hunt_et_al']
2472,c1cc2cccnc2c(c1)[OH:11],O,0,0,9.81,['9.81'],['hunt_et_al']
2473,CC(=O)CCCC(=O)[OH:9],O,0,0,4.66,['4.66'],['hunt_et_al']
2474,COc1c(cccc1O)C[NH3+:9],O,0,0,8.89,['8.89'],['hunt_et_al']
2475,C=CC(=O)[OH:5],O,0,0,4.25,['4.25'],['hunt_et_al']
2476,C[C@H](C[NH+:14](Cc1ccccc1)C[C@@H](C)O)O,O,0,0,7.5,['7.5'],['hunt_et_al']
2477,c1c(cc(c(c1N(=O)=O)[OH:16])N(=O)=O)N(=O)=O,O,0,0,0.29,['0.29'],['hunt_et_al']
2478,c1cc2c(cc1O)c(c[nH]2)CC[NH3+:12],O,0,0,10.0,['10.0'],['hunt_et_al']
2479,Cc1cc(ccc1C(=O)[OH:10])Br,O,0,0,3.77,['3.77'],['hunt_et_al']
2480,c1ccc2cc(ccc2c1)C(=O)[OH:13],O,0,0,4.18,['4.18'],['hunt_et_al']
2481,c1cc(cc(c1)N(=O)=O)CC(=O)[OH:13],O,0,0,3.97,['3.97'],['hunt_et_al']
2482,C[NH2+:10]C[C@@H](c1ccccc1)O,O,0,0,9.44,['9.44'],['hunt_et_al']
2483,CCC(CC)C(=O)[OH:8],O,0,0,4.73,['4.73'],['hunt_et_al']
2484,C(=O)(C(F)(F)F)[OH:4],O,0,0,0.3,['0.3'],['hunt_et_al']
2485,CC(C)(C)[SH:5],O,0,0,11.22,['11.22'],['hunt_et_al']
2486,c1ccc(cc1)[SH:7],O,0,0,6.62,['6.62'],['hunt_et_al']
2487,CCCC(CCC)C(=O)[OH:10],O,0,0,4.6,['4.6'],['hunt_et_al']