,Solute SMILES,Solvent SMILES,Solute CAS,Solute IUPAC,pKa (avg),pKa (all),Source
1034,C[N@@H+:10]1CCC[C@H](C(=O)CCC1)O,O,0,0,9.2,['9.2'],['hunt_et_al']
1035,C=CC[NH+:9]1CCCCC1,O,0,0,9.65,['9.65'],['hunt_et_al']
1036,c1cc(ccc1CC(=O)[OH:10])Cl,O,0,0,4.19,['4.19'],['hunt_et_al']
1037,C[C@@H]1C[C@@H](CC([NH2+:15]1)(C)C)Oc2ccccc2,O,0,0,9.54,['9.54'],['hunt_et_al']
1038,CCCC[NH+:10]1CCCCC1,O,0,0,10.43,['10.43'],['hunt_et_al']
1039,CCCC[N@H+:11]1CCCC[C@H]1C,O,0,0,10.7,['10.7'],['hunt_et_al']
1040,C[C@@H]1CCCC[N@H+:8]1C,O,0,0,10.22,['10.22'],['hunt_et_al']
1041,c1ccc(c(c1)CC(=O)[OH:10])Br,O,0,0,4.05,['4.05'],['hunt_et_al']
1042,CC[N@@H+:9]1CCCC[C@H]1C,O,0,0,10.66,['10.66'],['hunt_et_al']
1043,C[C@@H]1CCC[C@@H]([NH+:12]1CC(C)(C)O)C,O,0,0,10.5,['10.5'],['hunt_et_al']
1044,c1cc(ccc1CC(=O)[OH:10])Br,O,0,0,4.19,['4.19'],['hunt_et_al']
1045,C[C@@H]1CCCC[NH2+:7]1,O,0,0,11.08,['11.08'],['hunt_et_al']
1046,C[C@H]1CCC[NH2+:7]C1,O,0,0,11.07,['11.07'],['hunt_et_al']
1047,C[NH+:19]1CCC(CC1)(c2ccccc2)c3ccccc3,O,0,0,8.65,['8.65'],['hunt_et_al']
1048,C[C@@H](C=C(c1cccs1)c2cccs2)[NH+:18]3CCCCC3,O,0,0,8.41,['8.41'],['hunt_et_al']
1049,C[C@@H]1CCCC[N@@H+:19]1[C@@H](C)C=C(c2cccs2)c3cccs3,O,0,0,7.41,['7.41'],['hunt_et_al']
1050,C[C@@H]1CCC[N@@H+:19](C1)[C@@H](C)C=C(c2cccs2)c3cccs3,O,0,0,8.23,['8.23'],['hunt_et_al']
1051,CC1CC[NH+:19](CC1)[C@@H](C)C=C(c2cccs2)c3cccs3,O,0,0,8.15,['8.15'],['hunt_et_al']
1052,CC[C@@H](C)[NH+:22]1CCC(CC1)(c2ccccc2)c3ccccc3,O,0,0,9.67,['9.67'],['hunt_et_al']
1053,c1ccc(c(c1)CC(=O)[OH:10])I,O,0,0,4.04,['4.04'],['hunt_et_al']
1054,CC1(CCCC([NH+:11]1C)(C)C)C,O,0,0,11.19,['11.19'],['hunt_et_al']
1055,CCC[C@@H]1CCCC[NH2+:9]1,O,0,0,10.9,['10.9'],['hunt_et_al']
1056,C[C@H]1CC[N@@H+:10](C(C1)(C)C)C,O,0,0,10.18,['10.18'],['hunt_et_al']
1057,c1cc(cc(c1)I)CC(=O)[OH:10],O,0,0,4.16,['4.16'],['hunt_et_al']
1058,CC(=O)Nc1cccc[nH+:8]1,O,0,0,4.09,['4.09'],['hunt_et_al']
1059,c1cc[nH+:6]c(c1)N,O,0,0,6.82,['6.82'],['hunt_et_al']
1060,c1cc(ccc1CC(=O)[OH:10])I,O,0,0,4.18,['4.18'],['hunt_et_al']
1061,C[NH+:19](C)CC[N@@](Cc1ccccc1)c2ccccn2,O,0,0,8.96,['8.96'],['hunt_et_al']
1062,C[NH+](C)CCN(Cc1ccccc1)c2cccc[nH+:17]2,O,0,0,3.92,['3.92'],['hunt_et_al']
1063,c1cc(cc(c1)Cl)CCC(=O)[OH:11],O,0,0,4.59,['4.59'],['hunt_et_al']
1064,c1ccc(c(c1)/C=C/C(=O)[OH:11])Cl,O,0,0,4.41,['4.41'],['hunt_et_al']
1065,c1cc(cc(c1)Cl)/C=C/C(=O)[OH:11],O,0,0,4.29,['4.29'],['hunt_et_al']
1066,C[NH+:11](C)CCc1ccccn1,O,0,0,8.75,['8.75'],['hunt_et_al']
1067,C[NH+:11](C)CCc1ccncc1,O,0,0,8.7,['8.7'],['hunt_et_al']
1068,C[NH+:10](C)Cc1ccccn1,O,0,0,8.12,['8.12'],['hunt_et_al']
1069,C[NH+:10](C)Cc1cccnc1,O,0,0,8.0,['8.0'],['hunt_et_al']
1070,C[C@@](c1ccccc1)(C(=O)[OH:11])O,O,0,0,3.53,['3.53'],['hunt_et_al']
1071,c1ccc(cc1)[C@H](CC(=O)[OH:11])O,O,0,0,4.398,['4.398'],['hunt_et_al']
1072,c1cc(c(nc1)C=O)[OH:9],O,0,0,6.95,['6.95'],['hunt_et_al']
1073,c1cncc(c1C=O)[OH:9],O,0,0,6.77,['6.77'],['hunt_et_al']
1074,c1ccc(cc1)C(c2ccccc2)(C(=O)[OH:16])O,O,0,0,3.05,['3.05'],['hunt_et_al']
1075,c1ccc(c(c1)/C=C/C(=O)[OH:12])O,O,0,0,4.61,['4.61'],['hunt_et_al']
1076,c1cc(cc(c1)O)/C=C/C(=O)[OH:12],O,0,0,4.396,['4.396'],['hunt_et_al']
1077,CC(=O)N(C)c1cccc[nH+:9]1,O,0,0,2.01,['2.01'],['hunt_et_al']
1078,C[NH2+:9]Cc1ccccn1,O,0,0,8.82,['8.82'],['hunt_et_al']
1079,c1ccc(c(c1)CC(=O)[OH:13])N(=O)=O,O,0,0,4.004,['4.004'],['hunt_et_al']
1080,CN(c1cccc[nH+:14]1)C(=O)c2ccccc2,O,0,0,1.44,['1.44'],['hunt_et_al']
1081,Cc1cccc([nH+:8]1)NC,O,0,0,8.84,['8.84'],['hunt_et_al']
1082,c1ccc(c(c1)CCC(=O)[OH:14])N(=O)=O,O,0,0,4.504,['4.504'],['hunt_et_al']
1083,c1ccc(c(c1)/C=C/C(=O)[OH:14])N(=O)=O,O,0,0,4.15,['4.15'],['hunt_et_al']
1084,c1ccnc(c1)CC[NH+:14]2CCCCC2,O,0,0,9.29,['9.29'],['hunt_et_al']
1085,c1cnccc1CC[NH+:14]2CCCCC2,O,0,0,9.06,['9.06'],['hunt_et_al']
1086,c1cc(cnc1)C[NH+:13]2CCCCC2,O,0,0,8.3,['8.3'],['hunt_et_al']
1087,c1cnccc1C[NH+:13]2CCCCC2,O,0,0,7.88,['7.88'],['hunt_et_al']
1088,c1ccnc(c1)[C@H]2CCCC[NH2+:12]2,O,0,0,9.1,['9.1'],['hunt_et_al']
1089,c1ccnc(c1)CC[NH+:13]2CCCC2,O,0,0,9.39,['9.39'],['hunt_et_al']
1090,c1cc(cnc1)CC[NH+:13]2CCCC2,O,0,0,9.28,['9.28'],['hunt_et_al']
1091,c1cnccc1CC[NH+:13]2CCCC2,O,0,0,9.27,['9.27'],['hunt_et_al']
1092,c1ccnc(c1)C[NH+:12]2CCCC2,O,0,0,8.56,['8.56'],['hunt_et_al']
1093,c1cc(cnc1)C[NH+:12]2CCCC2,O,0,0,8.36,['8.36'],['hunt_et_al']
1094,c1cnccc1C[NH+:12]2CCCC2,O,0,0,8.16,['8.16'],['hunt_et_al']
1095,CC1=CCCC[NH2+:7]1,O,0,0,9.53,['9.53'],['hunt_et_al']
1096,COc1ccc(cc1OC)CC(=O)[OH:12],O,0,0,4.33,['4.33'],['hunt_et_al']
1097,c1cn(=O)ccc1C(=O)[OH:10],O,0,0,2.86,['2.86'],['hunt_et_al']
1098,c1cn(=O)ccc1[OH:8],O,0,0,5.76,['5.76'],['hunt_et_al']
1099,COc1ccccc1/C=C/C(=O)[OH:12],O,0,0,4.46,['4.46'],['hunt_et_al']
1100,C1CC[NH2+:5]C1,O,0,0,11.3,['11.3'],['hunt_et_al']
1101,c1ccc(cc1)C[NH+:12]2CCCC2,O,0,0,9.51,['9.51'],['hunt_et_al']
1102,c1ccc(cc1)C[C@@H]2CCC[NH2+:12]2,O,0,0,10.31,['10.31'],['hunt_et_al']
1103,CCCC[NH+:9]1CCCC1,O,0,0,10.36,['10.36'],['hunt_et_al']
1104,COc1cccc(c1)/C=C/C(=O)[OH:12],O,0,0,4.38,['4.38'],['hunt_et_al']
1105,C[C@@H]1CCC[N@H+:7]1C,O,0,0,10.2,['10.2'],['hunt_et_al']
1106,CC[C@@H]1CCC[NH2+:7]1,O,0,0,10.43,['10.43'],['hunt_et_al']
1107,COc1ccc(cc1)/C=C/C(=O)[OH:12],O,0,0,4.54,['4.54'],['hunt_et_al']
1108,C[N@@H+:13]1CCC[C@H]1c2ccc(cc2)OC,O,0,0,8.9,['8.9'],['hunt_et_al']
1109,C[NH+:6]1CCCC1,O,0,0,10.3,['10.3'],['hunt_et_al']
1110,C[N@@H+:12]1CCC[C@H]1c2ccccc2,O,0,0,8.8,['8.8'],['hunt_et_al']
1111,CCC[C@@H]1CCC[N@H+:9]1C,O,0,0,9.78,['9.78'],['hunt_et_al']
1112,c1ccc(cc1)CSCCC(=O)[OH:12],O,0,0,4.46,['4.46'],['hunt_et_al']
1113,c1cc(sc1)[C@@H]2CCC[NH2+:9]2,O,0,0,9.35,['9.35'],['hunt_et_al']
1114,Cc1ccc(cc1)[NH+:12]2CCCC2,O,0,0,4.7,['4.7'],['hunt_et_al']
1115,c1ccc(cc1)CC2=CCC[NH2+:12]2,O,0,0,7.06,['7.06'],['hunt_et_al']
1116,CCCCC1=CCC[N@@H+:10]1C,O,0,0,11.84,['11.84'],['hunt_et_al']
1117,CCC1=CCC[NH2+:7]1,O,0,0,7.87,['7.87'],['hunt_et_al']
1118,Cc1ccc(cc1)C2=CCC[NH2+:12]2,O,0,0,7.55,['7.55'],['hunt_et_al']
1119,C[NH+:6]1CC=CC1,O,0,0,9.88,['9.88'],['hunt_et_al']
1120,c1cc(cc(c1)F)[C@H](C(=O)[OH:10])O,O,0,0,4.24,['4.24'],['hunt_et_al']
1121,c1cc(cc(c1)Br)[C@H](C(=O)[OH:10])O,O,0,0,3.23,['3.23'],['hunt_et_al']
1122,C1COCC[NH2+:5]1,O,0,0,8.5,['8.5'],['hunt_et_al']
1123,c1cc(cc(c1)I)[C@H](C(=O)[OH:10])O,O,0,0,3.26,['3.26'],['hunt_et_al']
1124,CC(=O)C(CC[NH+:22]1CCOCC1)(c2ccccc2)c3ccccc3,O,0,0,6.83,['6.83'],['hunt_et_al']
1125,CC(=O)[C@H](C[NH+:15]1CCOCC1)c2ccccc2,O,0,0,6.23,['6.23'],['hunt_et_al']
1126,C=CC[NH+:8]1CCOCC1,O,0,0,7.02,['7.02'],['hunt_et_al']
1127,c1ccc(cc1)[C@H](C[NH+:20]2CCOCC2)C(=O)c3ccccc3,O,0,0,6.17,['6.17'],['hunt_et_al']
1128,c1ccc(cc1)C(CC[NH+:22]2CCOCC2)(C#N)c3ccccc3,O,0,0,6.04,['6.04'],['hunt_et_al']
1129,C[C@H](CC(C#N)(c1ccccc1)c2ccccc2)[NH+:23]3CCOCC3,O,0,0,6.05,['6.05'],['hunt_et_al']
1130,CCCC(=O)C(CC[NH+:24]1CCOCC1)(c2ccccc2)c3ccccc3,O,0,0,7.17,['7.17'],['hunt_et_al']
1131,CCC(=O)C(CC[NH+:23]1CCOCC1)(c2ccccc2)c3ccccc3,O,0,0,6.95,['6.95'],['hunt_et_al']
1132,CCC(=O)C(C[C@H](C)[NH+:24]1CCOCC1)(c2ccccc2)c3ccccc3,O,0,0,6.68,['6.68'],['hunt_et_al']
1133,CCC(=O)C(c1ccccc1)(c2ccccc2)[C@H](C)C[NH+:24]3CCOCC3,O,0,0,7.12,['7.12'],['hunt_et_al']
1134,C[C@@H](CC(c1ccccc1)c2ccccc2)[NH+:21]3CCOCC3,O,0,0,6.85,['6.85'],['hunt_et_al']
1135,CC(=O)N1CC[NH2+:7]CC1,O,0,0,7.9,['7.9'],['hunt_et_al']
1136,c1ccc(cc1)C(=O)N2CC[NH2+:12]CC2,O,0,0,7.75,['7.75'],['hunt_et_al']
1137,C[NH+:14]1CCN(CC1)C(=O)c2ccccc2,O,0,0,6.78,['6.78'],['hunt_et_al']
1138,CCOC(=O)N1CC[NH2+:8]CC1,O,0,0,8.2,['8.2'],['hunt_et_al']
1139,CCOC(=O)N1CC[NH+:10](CC1)C,O,0,0,7.31,['7.31'],['hunt_et_al']
1140,c1ccc2cc(ccc2c1)C(=O)CCC(=O)[OH:17],O,0,0,4.96,['4.96'],['hunt_et_al']
1141,c1cnncc1[OH:7],O,0,0,8.72,['8.72'],['hunt_et_al']
1142,c1c[nH+:5]c(nc1)N,O,0,0,3.45,['3.45'],['hunt_et_al']
1143,COC(=O)CC(c1ccccc1)(c2ccccc2)C(=O)[OH:20],O,0,0,3.899,['3.899'],['hunt_et_al']
1144,COC(=O)CCC(c1ccccc1)(c2ccccc2)C(=O)[OH:21],O,0,0,4.0,['4.0'],['hunt_et_al']
1145,c1ccc(cc1)c2cc(nc([nH+:17]2)N)c3ccccc3,O,0,0,3.74,['3.74'],['hunt_et_al']
1146,Cc1cc[nH+:6]c(n1)N,O,0,0,4.11,['4.11'],['hunt_et_al']
1147,Cn1cc(c(nc1=O)[OH:9])Br,O,0,0,7.84,['7.84'],['hunt_et_al']
1148,CNc1[nH+:6]cc(cn1)Br,O,0,0,2.09,['2.09'],['hunt_et_al']
1149,CCCCNc1[nH+:9]cccn1,O,0,0,4.14,['4.14'],['hunt_et_al']
1150,c1cnc(nc1)C(=O)[OH:9],O,0,0,2.85,['2.85'],['hunt_et_al']
1151,CNc1[nH+:6]ccc(n1)Cl,O,0,0,2.59,['2.59'],['hunt_et_al']
1152,Cn1ccc(nc1=O)[OH:9],O,0,0,9.71,['9.71'],['hunt_et_al']
1153,COC(=O)[C@H](CC(=O)[OH:14])c1ccccc1,O,0,0,4.36,['4.36'],['hunt_et_al']
1154,CN(C)c1cc(ncn1)[OH:10],O,0,0,10.49,['10.49'],['hunt_et_al']
1155,COC(=O)C[C@H](c1ccccc1)C(=O)[OH:14],O,0,0,4.05,['4.05'],['hunt_et_al']
1156,Cc1cc(nc([nH+:8]1)NC)C,O,0,0,5.23,['5.23'],['hunt_et_al']
1157,CCOc1ccnc(n1)[OH:9],O,0,0,10.7,['10.7'],['hunt_et_al']
1158,CCNc1[nH+:7]cccn1,O,0,0,3.89,['3.89'],['hunt_et_al']
1159,c1c(cncn1)[OH:7],O,0,0,6.8,['6.8'],['hunt_et_al']
1160,COc1cncnc1[OH:8],O,0,0,8.64,['8.64'],['hunt_et_al']
1161,Cc1cc(nc(n1)OC)[OH:9],O,0,0,8.5,['8.5'],['hunt_et_al']
1162,Cc1cc(ncn1)[OH:8],O,0,0,9.1,['9.1'],['hunt_et_al']
1163,CNc1[nH+:7]ccc(n1)OC,O,0,0,5.74,['5.74'],['hunt_et_al']
1164,CNc1[nH+:6]cccn1,O,0,0,3.79,['3.79'],['hunt_et_al']
1165,CCCCCNc1[nH+:10]cccn1,O,0,0,4.03,['4.03'],['hunt_et_al']
1166,Cc1ccccc1[OH:8],O,0,0,10.28,['10.28'],['hunt_et_al']
1167,C1CSCC[NH2+:5]1,O,0,0,9.0,['9.0'],['hunt_et_al']
1168,Cc1cccc(c1)[OH:8],O,0,0,10.09,['10.09'],['hunt_et_al']
1169,c1c(ncs1)CC[NH3+:7],O,0,0,9.48,['9.48'],['hunt_et_al']
1170,Cc1ccc(cc1)[OH:8],O,0,0,10.26,['10.26'],['hunt_et_al']
1171,C(=C\C(=O)O)\C(=O)[OH:7],O,0,0,2.0,['2.0'],['hunt_et_al']
1172,C(=C\C(=O)[O-])\C(=O)[OH:7],O,0,0,6.25,['6.25'],['hunt_et_al']
1173,Cc1cccc(c1C)[OH:9],O,0,0,10.5,['10.5'],['hunt_et_al']
1174,Cc1cccc(c1[OH:9])C,O,0,0,10.59,['10.59'],['hunt_et_al']
1175,Cc1cc(cc(c1)[OH:9])C,O,0,0,10.15,['10.15'],['hunt_et_al']
1176,c1ccc2c(c1)cc[nH+:10]c2N,O,0,0,7.59,['7.59'],['hunt_et_al']
1177,Cc1cc(c(c(c1)C)[OH:10])C,O,0,0,10.88,['10.88'],['hunt_et_al']
1178,c1ccc2c(c1)cncc2[OH:11],O,0,0,8.7,['8.7'],['hunt_et_al']
1179,c1cc2cnccc2cc1[OH:11],O,0,0,9.17,['9.17'],['hunt_et_al']
1180,CCc1cc(cc(c1)[OH:10])C,O,0,0,10.1,['10.1'],['hunt_et_al']
1181,c1cc2ccncc2c(c1)[OH:11],O,0,0,8.42,['8.42'],['hunt_et_al']
1182,c1cc2c(cc1[OH:10])CCC2,O,0,0,10.32,['10.32'],['hunt_et_al']
1183,c1ccc2c(c1)CC[NH2+:10]C2,O,0,0,9.41,['9.41'],['hunt_et_al']
1184,C[n+]1cc2ccccc2c(c1)[OH:12],O,0,0,4.9,['4.9'],['hunt_et_al']
1185,C[n+]1ccc2c(c1)cccc2[OH:12],O,0,0,6.87,['6.87'],['hunt_et_al']
1186,C[n+]1ccc2ccc(cc2c1)[OH:12],O,0,0,7.06,['7.06'],['hunt_et_al']
1187,CC(C)(C)C(=O)[OH:7],O,0,0,5.03,['5.03'],['hunt_et_al']
1188,c1cc2c(cc1[OH:11])CCCC2,O,0,0,10.48,['10.48'],['hunt_et_al']
1189,c1cc2c(ccc(c2nc1)O)C(=O)[OH:14],O,0,0,4.8,['4.8'],['hunt_et_al']
1190,c1ccc(cc1)c2ccc(cc2)[OH:13],O,0,0,9.55,['9.55'],['hunt_et_al']
1191,c1cc2ccc(c(c2nc1)[OH:11])Cl,O,0,0,8.7,['8.7'],['hunt_et_al']
1192,c1cc2c(cc(c(c2nc1)[OH:11])Cl)Cl,O,0,0,7.62,['7.62'],['hunt_et_al']
1193,c1ccc2cc(ccc2c1)[OH:11],O,0,0,9.57,['9.57'],['hunt_et_al']
1194,CC[NH+:16](CC)Cc1ccc2cccnc2c1O,O,0,0,11.3,['11.3'],['hunt_et_al']
1195,c1ccnc(c1)[OH:7],O,0,0,11.62,['11.62'],['hunt_et_al']
1196,C[NH+:14](C)Cc1ccc2cccnc2c1O,O,0,0,11.0,['11.0'],['hunt_et_al']
1197,Cc1ccnc2c1cccc2[OH:12],O,0,0,10.0,['10.0'],['hunt_et_al']
1198,c1ccc2c(c1)ccc(n2)[OH:11],O,0,0,11.76,['11.76'],['hunt_et_al']
1199,c1ccc2c(c1)c(ccn2)[OH:11],O,0,0,11.28,['11.28'],['hunt_et_al']
1200,c1cc2c(cccn2)c(c1)[OH:11],O,0,0,8.56,['8.56'],['hunt_et_al']
1201,c1cc2cc(ccc2nc1)[OH:11],O,0,0,8.9,['8.9'],['hunt_et_al']
1202,c1cc2ccc(cc2nc1)[OH:11],O,0,0,8.87,['8.87'],['hunt_et_al']
1203,Cc1cc2cccc(c2nc1C)[OH:13],O,0,0,10.2,['10.2'],['hunt_et_al']
1204,CCCc1ccc(c2c1cccn2)[OH:14],O,0,0,9.7,['9.7'],['hunt_et_al']
1205,c1cc(cc(c1)O)[OH:7],O,0,0,9.15,['9.15'],['hunt_et_al']
1206,c1cc(ccc1[OH:7])O,O,0,0,9.91,['9.91'],['hunt_et_al']
1207,c1ccc2c(c1)CCC[NH2+:10]2,O,0,0,5.03,['5.03'],['hunt_et_al']
1208,C[n+]1cc(cc2c1cccc2)[OH:12],O,0,0,5.39,['5.39'],['hunt_et_al']
1209,C[n+]1cccc2c1ccc(c2)[OH:12],O,0,0,7.12,['7.12'],['hunt_et_al']
1210,C[n+]1cccc2c1c(ccc2)[OH:12],O,0,0,6.78,['6.78'],['hunt_et_al']
1211,c1ccc(c(c1)[OH:7])F,O,0,0,8.81,['8.81'],['hunt_et_al']
1212,C1C[NH+:8]2CCC1CC2,O,0,0,10.95,['10.95'],['hunt_et_al']
1213,c1ccc(cc1)[C@@H]2C[NH+:14]3CCC2CC3,O,0,0,10.23,['10.23'],['hunt_et_al']
1214,c1ccc(cc1)C2=C[NH+:14]3CCC2CC3,O,0,0,9.1,['9.1'],['hunt_et_al']
1215,c1ccc(c(c1)[OH:7])Cl,O,0,0,8.11,['8.11'],['hunt_et_al']
1216,c1cc(cc(c1)Cl)[OH:7],O,0,0,9.08,['9.08'],['hunt_et_al']
1217,c1cc(ccc1[OH:7])Cl,O,0,0,9.42,['9.42'],['hunt_et_al']
1218,c1cc(c2c(c1)scn2)[OH:9],O,0,0,8.85,['8.85'],['hunt_et_al']
1219,c1cc(ccc1[OH:7])Br,O,0,0,9.34,['9.34'],['hunt_et_al']
1220,c1ccc2c(c1)cc(nn2)[OH:11],O,0,0,8.63,['8.63'],['hunt_et_al']
1221,c1ccc2c(c1)c(cnn2)[OH:11],O,0,0,9.3,['9.3'],['hunt_et_al']
1222,c1ccc(c(c1)[OH:7])I,O,0,0,8.46,['8.46'],['hunt_et_al']
1223,c1cc2c(ccnn2)cc1[OH:11],O,0,0,7.55,['7.55'],['hunt_et_al']
1224,c1cc(cc2c1ccnn2)[OH:11],O,0,0,7.59,['7.59'],['hunt_et_al']
1225,c1cc2ccnnc2c(c1)[OH:11],O,0,0,8.22,['8.22'],['hunt_et_al']
1226,Cc1cnnc2c1cccc2[OH:12],O,0,0,8.36,['8.36'],['hunt_et_al']
1227,c1cc(ccc1[OH:7])I,O,0,0,9.2,['9.2'],['hunt_et_al']
1228,c1cc2cncc(c2nc1)[OH:11],O,0,0,8.35,['8.35'],['hunt_et_al']
1229,c1cc2ccnc(c2nc1)[OH:11],O,0,0,12.04,['12.04'],['hunt_et_al']
1230,c1cc(ccc1C#N)[OH:9],O,0,0,7.95,['7.95'],['hunt_et_al']
1231,Cc1cc(cc(c1C#N)C)[OH:11],O,0,0,8.21,['8.21'],['hunt_et_al']
1232,c1cc(c(cc1Cl)Cc2cc(ccc2O)Cl)[OH:14],O,0,0,7.6,['7.6'],['hunt_et_al']
1233,c1c(cc(c(c1Cc2cc(cc(c2O)Cl)Cl)[OH:14])Cl)Cl,O,0,0,10.65,['10.65'],['hunt_et_al']
1234,c1ccc2c(c1)cnc(n2)[OH:11],O,0,0,10.73,['10.73'],['hunt_et_al']
1235,c1ccc2c(c1)c(ncn2)[OH:11],O,0,0,9.87,['9.87'],['hunt_et_al']
1236,c1cc2c(cncn2)c(c1)[OH:11],O,0,0,7.41,['7.41'],['hunt_et_al']
1237,c1cc2c(cc1[OH:11])cncn2,O,0,0,8.21,['8.21'],['hunt_et_al']
1238,c1cc2cncnc2c(c1)[OH:11],O,0,0,8.67,['8.67'],['hunt_et_al']
1239,Cc1c2cccc(c2nc(n1)C)[OH:13],O,0,0,9.41,['9.41'],['hunt_et_al']
1240,Cc1c2cccc(c2ncn1)[OH:12],O,0,0,8.77,['8.77'],['hunt_et_al']
1241,Cc1cc(cc(c1N(=O)=O)C)[OH:12],O,0,0,8.25,['8.25'],['hunt_et_al']
1242,c1ccc2c(c1)ncc(n2)[OH:11],O,0,0,9.14,['9.14'],['hunt_et_al']
1243,c1cc2c(c(c1)[OH:11])nccn2,O,0,0,8.68,['8.68'],['hunt_et_al']
1244,Cc1c(nc2ccccc2n1)[OH:12],O,0,0,9.9,['9.9'],['hunt_et_al']
1245,Cc1cc(c(c(c1N(=O)=O)C)[OH:13])C,O,0,0,8.86,['8.86'],['hunt_et_al']
1246,c1cc2cnc(nc2nc1)[OH:11],O,0,0,8.98,['8.98'],['hunt_et_al']
1247,c1ccc2c(c1)cccc2S(=O)(=O)[OH:13],O,0,0,0.16,['0.16'],['hunt_et_al']
1248,CC[NH+:10](CC)CP(=O)(OCC)OCC,O,0,0,6.4,['6.4'],['hunt_et_al']
1249,CC[NH+:11](CC)CCOP(=O)(OCC)OCC,O,0,0,8.4,['8.4'],['hunt_et_al']
1250,CCOP(=O)(OCC)OCC[NH+:9](C)C,O,0,0,8.0,['8.0'],['hunt_et_al']
1251,CC(C)OP(=O)(OCC[NH+:11](C)C)OC(C)C,O,0,0,8.06,['8.06'],['hunt_et_al']
1252,CC(C)OP(=O)(OC(C)C)SCC[NH+:11](C)C,O,0,0,7.7,['7.7'],['hunt_et_al']
1253,CCO[P@@](=O)(C)SCC[NH+:8](C)C,O,0,0,7.77,['7.77'],['hunt_et_al']
1254,C[NH2+:6]CCCCO,O,0,0,9.55,['9.55'],['hunt_et_al']
1255,CC[C@@H](C[N@H+:9](CC)CCO)O,O,0,0,9.1,['9.1'],['hunt_et_al']
1256,Cc1ccc(cc1)[C@@H]2C[C@H]2[NH3+:11],O,0,0,8.33,['8.33'],['hunt_et_al']
1257,C1CCC(C1)[NH2+:11]C2CCCC2,O,0,0,10.93,['10.93'],['hunt_et_al']
1258,c1cc2c3c(ccc(c3c1)[NH3+:13])CC2,O,0,0,4.58,['4.58'],['hunt_et_al']
1259,C[NH+:7](C)CCCOC,O,0,0,9.4,['9.4'],['hunt_et_al']
1260,CCC(C)(C)[NH2+:11]C(C)(C)C=C,O,0,0,10.8,['10.8'],['hunt_et_al']
1261,CCC(C)(C)[NH2+:11]C(C)(C)C#C,O,0,0,9.0,['9.0'],['hunt_et_al']
1262,CC[C@@H](C)C[C@@H](C)[NH3+:8],O,0,0,10.55,['10.55'],['hunt_et_al']
1263,CCCCCC[N@@H+:13](CCO)C[C@H](CC)O,O,0,0,9.0,['9.0'],['hunt_et_al']
1264,CC(C)(C)Sc1ccc(cc1)[NH3+:11],O,0,0,3.44,['3.44'],['hunt_et_al']
1265,c1(c(c(c(c(c1F)F)F)F)F)[NH3+:7],O,0,0,-0.28,['-0.28'],['hunt_et_al']
1266,c1cc(cc(c1)[NH3+:10])C(=O)OC(C(F)(F)F)(F)F,O,0,0,3.24,['3.24'],['hunt_et_al']
1267,c1cc(ccc1C(=O)OC(C(F)(F)F)(F)F)[NH3+:10],O,0,0,3.78,['3.78'],['hunt_et_al']
1268,c1ccc2c(c1)ccc-3c2Cc4c3ccc(c4)[NH3+:18],O,0,0,4.67,['4.67'],['hunt_et_al']
1269,CC(C)(C)[NH+:9]1CCCC1,O,0,0,11.13,['11.13'],['hunt_et_al']
1270,C[C@@H]1[C@H](C([NH2+:11]C1(C)C)(C)C)C,O,0,0,11.4,['11.4'],['hunt_et_al']
1271,CC(=O)OCC[NH+:7](C)C,O,0,0,8.4,['8.4'],['hunt_et_al']
1272,C(CCl)[NH3+:3],O,0,0,8.56,['8.56'],['hunt_et_al']
1273,C(C(F)F)[NH3+:3],O,0,0,7.3,['7.3'],['hunt_et_al']
1274,C(CF)[NH3+:3],O,0,0,9.0,['9.0'],['hunt_et_al']
1275,CCCC(=O)OCC[NH+:9](C)C,O,0,0,8.31,['8.31'],['hunt_et_al']
1276,CCCC(=O)SCC[NH+:9](C)C,O,0,0,8.32,['8.32'],['hunt_et_al']
1277,CCC(=O)OCC[NH+:8](C)C,O,0,0,8.29,['8.29'],['hunt_et_al']
1278,CCC(=O)SCC[NH+:8](C)C,O,0,0,8.28,['8.28'],['hunt_et_al']
1279,CC[NH2+:7]C[Si](C)(C)C,O,0,0,11.12,['11.12'],['hunt_et_al']
1280,CC(=O)OCCC[NH+:8](C)C,O,0,0,9.0,['9.0'],['hunt_et_al']
1281,C(C(C(Cl)(Cl)Cl)(Cl)Cl)[NH3+:4],O,0,0,6.58,['6.58'],['hunt_et_al']
1282,CC(C)(C=C)[NH2+:11]C(C)(C)C=C,O,0,0,10.1,['10.1'],['hunt_et_al']
1283,CCC[C@@H](c1ccccc1)[NH3+:11],O,0,0,9.45,['9.45'],['hunt_et_al']
1284,C[C@@H](c1cccc(c1)Br)[NH3+:9],O,0,0,9.88,['9.88'],['hunt_et_al']
1285,C[C@@H](c1ccccc1Cl)[NH3+:9],O,0,0,8.8,['8.8'],['hunt_et_al']
1286,C[C@@H](c1ccc(cc1)Cl)[NH3+:9],O,0,0,9.1,['9.1'],['hunt_et_al']
1287,C[C@@H](c1ccc(cc1)F)[NH3+:9],O,0,0,9.22,['9.22'],['hunt_et_al']
1288,C[C@@H](c1ccc(cc1)OC)[NH3+:10],O,0,0,9.47,['9.47'],['hunt_et_al']
1289,Cc1cccc(c1)[C@H](C)[NH3+:10],O,0,0,9.41,['9.41'],['hunt_et_al']
1290,C[C@@H](c1cccc(c1)N(=O)=O)[NH3+:9],O,0,0,8.56,['8.56'],['hunt_et_al']
1291,C[C@@H](c1ccc(cc1)N(=O)=O)[NH3+:9],O,0,0,8.5,['8.5'],['hunt_et_al']
1292,C[C@@H](c1cccc(c1)C(F)(F)F)[NH3+:10],O,0,0,8.77,['8.77'],['hunt_et_al']
1293,CCCCC[C@H](c1ccccc1)[NH3+:13],O,0,0,8.87,['8.87'],['hunt_et_al']
1294,c1cc(c(cc1[C@H](C[NH3+:9])O)Cl)Cl,O,0,0,8.78,['8.78'],['hunt_et_al']
1295,COc1ccc(c(c1)C[C@H](CO)[NH3+:12])OC,O,0,0,9.18,['9.18'],['hunt_et_al']
1296,CC(C)C[C@@H](c1ccccc1)[NH3+:12],O,0,0,9.47,['9.47'],['hunt_et_al']
1297,CC(C)C[C@@H](c1ccc(cc1)Cl)[NH3+:12],O,0,0,8.47,['8.47'],['hunt_et_al']
1298,CC(C)C[C@@H](c1ccc(cc1)F)[NH3+:12],O,0,0,9.25,['9.25'],['hunt_et_al']
1299,CC(C)CC[C@@H](c1ccccc1)[NH3+:13],O,0,0,9.02,['9.02'],['hunt_et_al']
1300,CCCC[C@@H](c1ccccc1)[NH3+:12],O,0,0,9.45,['9.45'],['hunt_et_al']
1301,CCCC[C@@H](c1ccc(cc1)Cl)[NH3+:12],O,0,0,8.85,['8.85'],['hunt_et_al']
1302,CCCC[C@@H](c1ccc(cc1)F)[NH3+:12],O,0,0,9.15,['9.15'],['hunt_et_al']
1303,CC[C@H](c1ccccc1)[NH3+:10],O,0,0,9.3,['9.3'],['hunt_et_al']
1304,CC[C@@H](C)C(=O)[OH:7],O,0,0,4.81,['4.81'],['hunt_et_al']
1305,CC[C@H](c1ccc(cc1)Br)[NH3+:10],O,0,0,9.08,['9.08'],['hunt_et_al']
1306,CC[C@H](c1ccc(cc1)Cl)[NH3+:10],O,0,0,9.1,['9.1'],['hunt_et_al']
1307,c1ccc(cc1)CC[NH+:13](CCO)CCO,O,0,0,7.6,['7.6'],['hunt_et_al']
1308,CC(C)[NH2+:12]C[C@@H](c1ccccc1Br)O,O,0,0,9.4,['9.4'],['hunt_et_al']
1309,CC(C)[NH2+:12]C[C@@H](c1cccc(c1)Br)O,O,0,0,9.37,['9.37'],['hunt_et_al']
1310,CC(C)[NH2+:12]C[C@@H](c1ccc(cc1)Br)O,O,0,0,9.26,['9.26'],['hunt_et_al']
1311,CCCCOc1ccc(cc1OC)[C@H](C[NH2+:15]C)O,O,0,0,9.51,['9.51'],['hunt_et_al']
1312,CC(C)(C)[NH2+:13]C[C@@H](c1ccc(c(c1)F)F)O,O,0,0,9.51,['9.51'],['hunt_et_al']
1313,CCCC[NH2+:15]C[C@@H](c1ccc(c(c1)OC)OC)O,O,0,0,9.56,['9.56'],['hunt_et_al']
1314,CC[C@@H](C)[NH2+:15]C[C@@H](c1ccc(c(c1)OC)OC)O,O,0,0,9.48,['9.48'],['hunt_et_al']
1315,CC(C)(C)[NH2+:15]C[C@@H](c1ccc(c(c1)OC)OC)O,O,0,0,9.73,['9.73'],['hunt_et_al']
1316,CC(C)[NH2+:12]C[C@@H](c1ccccc1Cl)O,O,0,0,9.43,['9.43'],['hunt_et_al']
1317,CC(C)[NH2+:12]C[C@@H](c1cccc(c1)Cl)O,O,0,0,9.42,['9.42'],['hunt_et_al']
1318,CC(C)[NH2+:12]C[C@@H](c1ccc(cc1)Cl)O,O,0,0,9.21,['9.21'],['hunt_et_al']
1319,CC(C)[NH2+:14]C[C@@H](c1cccc(c1)C#N)O,O,0,0,9.33,['9.33'],['hunt_et_al']
1320,C[NH2+:16]C[C@@H](c1ccc(cc1)C2CCCCC2)O,O,0,0,9.01,['9.01'],['hunt_et_al']
1321,CC(C)[NH2+:12]C[C@@H](c1ccc(c(c1)Br)Br)O,O,0,0,9.29,['9.29'],['hunt_et_al']
1322,CC[NH+:22](CC)CCCCC(c1ccccc1)(c2ccccc2)O,O,0,0,10.08,['10.08'],['hunt_et_al']
1323,CC[NH+:22](CC)CCCCC(c1ccccc1)c2ccccc2,O,0,0,10.1,['10.1'],['hunt_et_al']
1324,CC[NH+:20](CC)CCC(c1ccccc1)c2ccccc2,O,0,0,10.1,['10.1'],['hunt_et_al']