,Solute SMILES,Solvent SMILES,Solute CAS,Solute IUPAC,pKa (avg),pKa (all),Source
1325,CC(C)[NH2+:12]C[C@@H](c1ccc(c(c1)F)F)O,O,0,0,9.36,['9.36'],['hunt_et_al']
1326,CC(C)[NH2+:12]C[C@@H](c1cc(cc(c1)O)O)O,O,0,0,9.92,['9.92'],['hunt_et_al']
1327,C[NH+:11](C)C[C@@H](c1ccc(c(c1)O)O)O,O,0,0,9.257,['9.257'],['hunt_et_al']
1328,C[NH+:12](C)C[C@@H](c1ccc(c(c1)OC)O)O,O,0,0,9.52,['9.52'],['hunt_et_al']
1329,CC[NH2+:13]C[C@@H](c1ccc(c(c1)OC)OC)O,O,0,0,9.61,['9.61'],['hunt_et_al']
1330,CC[NH2+:11]C[C@@H](c1cccc(c1)O)O,O,0,0,8.983,['8.983'],['hunt_et_al']
1331,CC(C)[NH2+:12]C[C@@H](c1ccc(cc1)F)O,O,0,0,9.35,['9.35'],['hunt_et_al']
1332,C[NH2+:11]C[C@@H](c1ccc(c(c1)OC)O)O,O,0,0,9.52,['9.52'],['hunt_et_al']
1333,CC(C)C[NH2+:15]C[C@@H](c1ccc(c(c1)OC)OC)O,O,0,0,9.28,['9.28'],['hunt_et_al']
1334,CC(C)[NH2+:12]C[C@@H](c1ccccc1)O,O,0,0,9.5,['9.5'],['hunt_et_al']
1335,CC(C)[NH2+:14]C[C@@H](c1ccc(c(c1)OC)OC)O,O,0,0,9.58,['9.58'],['hunt_et_al']
1336,Cc1ccc(cc1C)[C@H](C[NH2+:14]C(C)C)O,O,0,0,9.38,['9.38'],['hunt_et_al']
1337,CC(C)[NH2+:12]C[C@@H](c1ccccc1I)O,O,0,0,9.32,['9.32'],['hunt_et_al']
1338,CC(C)[NH2+:13]C[C@@H](c1ccccc1OC)O,O,0,0,9.69,['9.69'],['hunt_et_al']
1339,CC(C)[NH2+:13]C[C@@H](c1cccc(c1)OC)O,O,0,0,9.54,['9.54'],['hunt_et_al']
1340,CC(C)[NH2+:13]C[C@@H](c1ccc(cc1)OC)O,O,0,0,9.26,['9.26'],['hunt_et_al']
1341,Cc1ccc(cc1)[C@H](C[NH2+:13]C(C)C)O,O,0,0,9.35,['9.35'],['hunt_et_al']
1342,CC(C)[NH2+:13]C[C@@H](c1ccc(cc1)S(=O)(=O)C)O,O,0,0,9.25,['9.25'],['hunt_et_al']
1343,CC(C)[NH2+:13]C[C@@H](c1ccccc1SC)O,O,0,0,9.41,['9.41'],['hunt_et_al']
1344,CC(C)[NH2+:13]C[C@@H](c1ccc(cc1)SC)O,O,0,0,9.06,['9.06'],['hunt_et_al']
1345,CC(C)[NH2+:12]C[C@@H](c1ccccc1N(=O)=O)O,O,0,0,9.35,['9.35'],['hunt_et_al']
1346,CC(C)[NH2+:12]C[C@@H](c1cccc(c1)N(=O)=O)O,O,0,0,9.21,['9.21'],['hunt_et_al']
1347,CC(C)[NH2+:12]C[C@@H](c1ccc(cc1)N(=O)=O)O,O,0,0,9.27,['9.27'],['hunt_et_al']
1348,CC(C)[NH2+:18]C[C@@H](c1cccc(c1)c2ccccc2)O,O,0,0,9.49,['9.49'],['hunt_et_al']
1349,CC(C)[NH2+:13]C[C@@H](c1ccccc1C(F)(F)F)O,O,0,0,9.31,['9.31'],['hunt_et_al']
1350,CC(C)[NH2+:13]C[C@@H](c1cccc(c1)C(F)(F)F)O,O,0,0,9.3,['9.3'],['hunt_et_al']
1351,C[NH2+:11]CC[C@@H](c1ccccc1)O,O,0,0,9.565,['9.565'],['hunt_et_al']
1352,CC(C)(Cc1ccccc1)[NH2+:12]C,O,0,0,10.37,['10.37'],['hunt_et_al']
1353,c1ccc(cc1)C[NH+:12](CCO)CCO,O,0,0,7.68,['7.68'],['hunt_et_al']
1354,Cc1ccccc1C[NH+:13](CCO)CCO,O,0,0,7.1,['7.1'],['hunt_et_al']
1355,Cc1cccc(c1)C[NH+:13](CCO)CCO,O,0,0,7.0,['7.0'],['hunt_et_al']
1356,Cc1ccc(cc1)C[NH+:13](CCO)CCO,O,0,0,7.2,['7.2'],['hunt_et_al']
1357,Cc1cc(c(c(c1)C)C[NH+:15](CCO)CCO)C,O,0,0,7.45,['7.45'],['hunt_et_al']
1358,c1cc(cc(c1)Br)C[NH3+:8],O,0,0,8.98,['8.98'],['hunt_et_al']
1359,c1cc(ccc1C[NH3+:8])Br,O,0,0,9.13,['9.13'],['hunt_et_al']
1360,c1cc(ccc1C[NH3+:10])C#N,O,0,0,8.52,['8.52'],['hunt_et_al']
1361,C[NH+:11](C)Cc1cccc(c1)N(=O)=O,O,0,0,8.2,['8.2'],['hunt_et_al']
1362,C[NH+:11](C)Cc1ccc(cc1)N(=O)=O,O,0,0,8.14,['8.14'],['hunt_et_al']
1363,COc1cccc(c1)C[NH2+:15]c2ccc(cc2N(=O)=O)N(=O)=O,O,0,0,-5.07,['-5.07'],['hunt_et_al']
1364,COc1ccc(cc1)C[NH2+:15]c2ccc(cc2N(=O)=O)N(=O)=O,O,0,0,-4.51,['-4.51'],['hunt_et_al']
1365,Cc1cccc(c1)C[NH2+:15]c2ccc(cc2N(=O)=O)N(=O)=O,O,0,0,-4.68,['-4.68'],['hunt_et_al']
1366,Cc1ccc(cc1)C[NH2+:15]c2ccc(cc2N(=O)=O)N(=O)=O,O,0,0,-4.7,['-4.7'],['hunt_et_al']
1367,c1cc(cc(c1)F)C[NH3+:8],O,0,0,9.04,['9.04'],['hunt_et_al']
1368,c1cc(cc(c1)F)C[NH+:12](CCO)CCO,O,0,0,6.5,['6.5'],['hunt_et_al']
1369,c1cc(ccc1C[NH+:12](CCO)CCO)F,O,0,0,6.8,['6.8'],['hunt_et_al']
1370,C[NH+:10](C)Cc1ccc(cc1)F,O,0,0,8.94,['8.94'],['hunt_et_al']
1371,C[NH+:11](C)Cc1cccc(c1)OC,O,0,0,9.04,['9.04'],['hunt_et_al']
1372,C[NH2+:10]Cc1ccc(cc1)OC,O,0,0,9.97,['9.97'],['hunt_et_al']
1373,C[NH2+:9]Cc1cccc(c1)N(=O)=O,O,0,0,8.77,['8.77'],['hunt_et_al']
1374,C[NH2+:9]Cc1ccc(cc1)N(=O)=O,O,0,0,8.63,['8.63'],['hunt_et_al']
1375,c1cc(ccc1C[NH3+:8])N(=O)=O,O,0,0,8.5,['8.5'],['hunt_et_al']
1376,Cc1ccc(cc1)C[NH+:11](C)C,O,0,0,9.22,['9.22'],['hunt_et_al']
1377,CC(=O)c1ccc(cc1)c2ccc(cc2)[NH3+:15],O,0,0,3.98,['3.98'],['hunt_et_al']
1378,C[NH+:8]1CCCCCC1,O,0,0,10.3,['10.3'],['hunt_et_al']
1379,C[C@@H]1CCC[N@@H+:8](C1)C,O,0,0,10.02,['10.02'],['hunt_et_al']
1380,C[C@@H]1CC[NH2+:8][C@@H](C1)C,O,0,0,10.73,['10.73'],['hunt_et_al']
1381,CC1(CCC[NH2+:8]C1)C,O,0,0,10.38,['10.38'],['hunt_et_al']
1382,C[C@H]1CC(=C)CC[N@@H+:9]1C,O,0,0,9.25,['9.25'],['hunt_et_al']
1383,C[C@@H]1C[N@@H+:9](CCC1=C)C,O,0,0,9.09,['9.09'],['hunt_et_al']
1384,c1cc(c(cc1N(=O)=O)N(=O)=O)[NH+:12]2CCCCC2,O,0,0,-0.38,['-0.38'],['hunt_et_al']
1385,CC[N@H+:9]1CCC[C@H](C1)C,O,0,0,10.33,['10.33'],['hunt_et_al']
1386,CC[NH+:9]1CCC(CC1)C,O,0,0,10.28,['10.28'],['hunt_et_al']
1387,c1ccc(cc1)[C@H]([C@@H]2CCCC[NH2+:13]2)O,O,0,0,9.57,['9.57'],['hunt_et_al']
1388,CC1(CC(CC([NH2+:10]1)(C)C)O)C,O,0,0,10.05,['10.05'],['hunt_et_al']
1389,CC(C)C[NH+:10]1CCCCC1,O,0,0,10.44,['10.44'],['hunt_et_al']
1390,CC(C)[C@H]1CCC[NH2+:9]C1,O,0,0,10.75,['10.75'],['hunt_et_al']
1391,CC(=C1CCC[NH2+:9]C1)C,O,0,0,10.47,['10.47'],['hunt_et_al']
1392,C[C@@H]([NH+:13]1CCCCC1)OC(=O)CC(=C)C,O,0,0,8.37,['8.37'],['hunt_et_al']
1393,C[N@H+:8]1CCCC(=C)C1,O,0,0,9.31,['9.31'],['hunt_et_al']
1394,C[NH+:8]1CCC(=C)CC1,O,0,0,9.03,['9.03'],['hunt_et_al']
1395,C/C=C(\C)/[NH+:10]1CCCCC1,O,0,0,8.35,['8.35'],['hunt_et_al']
1396,CC1(CC(C[NH+:11](C1)C)(C)C)C,O,0,0,9.43,['9.43'],['hunt_et_al']
1397,CC1(CC(C[NH2+:10]C1)(C)C)C,O,0,0,10.1,['10.1'],['hunt_et_al']
1398,CC1(CC(=O)CC([NH2+:10]1)(C)C)C,O,0,0,7.9,['7.9'],['hunt_et_al']
1399,C[C@H]1CC[N@@H+:9]([C@H](C1)C)C,O,0,0,10.09,['10.09'],['hunt_et_al']
1400,C[C@@H]1C[C@@H](C[NH+:9](C1)C)C,O,0,0,10.0,['10.0'],['hunt_et_al']
1401,c1cc([nH+:6]c(c1)Br)N,O,0,0,2.6,['2.6'],['hunt_et_al']
1402,c1c[nH+:6]c(cc1Cl)N,O,0,0,5.7,['5.7'],['hunt_et_al']
1403,c1cc([nH+:8]cc1C#N)N,O,0,0,3.41,['3.41'],['hunt_et_al']
1404,CCOC(=O)c1ccc[nH+:9]c1N,O,0,0,4.73,['4.73'],['hunt_et_al']
1405,CCOC(=O)c1cc[nH+:9]c(c1)N,O,0,0,5.25,['5.25'],['hunt_et_al']
1406,c1cncc(c1[OH:8])N,O,0,0,11.38,['11.38'],['hunt_et_al']
1407,COc1cccc([nH+:7]1)N,O,0,0,4.64,['4.64'],['hunt_et_al']
1408,COC(=O)c1ccc[nH+:8]c1N,O,0,0,4.78,['4.78'],['hunt_et_al']
1409,COC(=O)c1cc[nH+:8]c(c1)N,O,0,0,5.21,['5.21'],['hunt_et_al']
1410,Cc1cc(c[nH+:7]c1N)N(=O)=O,O,0,0,3.58,['3.58'],['hunt_et_al']
1411,Cc1cc(c([nH+:7]c1)N)N(=O)=O,O,0,0,2.98,['2.98'],['hunt_et_al']
1412,c1cc(c([nH+:6]c1)N)N(=O)=O,O,0,0,2.33,['2.33'],['hunt_et_al']
1413,CC(C)C[NH+:9]1CCOCC1,O,0,0,7.82,['7.82'],['hunt_et_al']
1414,CCCCC[NH+:10]1CCOCC1,O,0,0,7.69,['7.69'],['hunt_et_al']
1415,c1cc(ccc1c2cnc(o2)C(=O)[OH:14])Cl,O,0,0,1.68,['1.68'],['hunt_et_al']
1416,Cc1c(oc(n1)C)C(=O)[OH:10],O,0,0,3.08,['3.08'],['hunt_et_al']
1417,c1ccc(cc1)c2c(nc(o2)c3ccccc3)C(=O)[OH:20],O,0,0,3.4,['3.4'],['hunt_et_al']
1418,c1ccc(cc1)c2c(oc(n2)c3ccccc3)C(=O)[OH:20],O,0,0,-1.44,['-1.44'],['hunt_et_al']
1419,c1ccc(cc1)c2cnc(o2)C(=O)[OH:14],O,0,0,1.78,['1.78'],['hunt_et_al']
1420,Cc1c(c(nc([nH+:10]1)N)C)CC=C,O,0,0,5.1,['5.1'],['hunt_et_al']
1421,CC(C)(C)c1c(c[nH+:9]c(n1)N)Br,O,0,0,2.88,['2.88'],['hunt_et_al']
1422,Cc1c(c(nc([nH+:7]1)N)C)Br,O,0,0,3.3,['3.3'],['hunt_et_al']
1423,c1cc(ccc1c2c[nH+:11]c(nc2)N)Br,O,0,0,3.06,['3.06'],['hunt_et_al']
1424,CC(C)(C)c1cc[nH+:9]c(n1)N,O,0,0,4.58,['4.58'],['hunt_et_al']
1425,c1c(cnc([nH+:6]1)N)C(=O)N,O,0,0,2.06,['2.06'],['hunt_et_al']
1426,CCCc1c([nH+:10]c(nc1C)N)C,O,0,0,5.42,['5.42'],['hunt_et_al']
1427,CC[C@@H](C)Nc1[nH+:11]c(cc(n1)C)C,O,0,0,5.12,['5.12'],['hunt_et_al']
1428,C[NH+:16](C)c1ccc(cc1)c2cnc(nc2)OC,O,0,0,4.31,['4.31'],['hunt_et_al']
1429,Cc1cc(nc(n1)[OH:9])C,O,0,0,10.5,['10.5'],['hunt_et_al']
1430,Cc1cc(nc(n1)C)[OH:9],O,0,0,9.82,['9.82'],['hunt_et_al']
1431,CCCc1c(nc(nc1C)[OH:12])C,O,0,0,10.89,['10.89'],['hunt_et_al']
1432,CC#Cc1c(nc(nc1C)[OH:12])C,O,0,0,9.49,['9.49'],['hunt_et_al']
1433,Cc1c(c(nc(n1)[OH:12])C)CC#C,O,0,0,10.25,['10.25'],['hunt_et_al']
1434,COc1cc(ncn1)[OH:8],O,0,0,8.47,['8.47'],['hunt_et_al']
1435,Cc1cncnc1[OH:8],O,0,0,9.17,['9.17'],['hunt_et_al']
1436,CSc1cc(ncn1)[OH:8],O,0,0,8.52,['8.52'],['hunt_et_al']
1437,c1cc(ccc1c2cnc(nc2)[OH:16])N(=O)=O,O,0,0,8.17,['8.17'],['hunt_et_al']
1438,Cc1c(nc(nc1C)[OH:10])C,O,0,0,10.85,['10.85'],['hunt_et_al']
1439,C[C@H]1C[NH+:9]=C(S1)C(C)(C)C,O,0,0,5.027,['5.027'],['hunt_et_al']
1440,Cc1csc(n1)C(=O)[OH:8],O,0,0,3.18,['3.18'],['hunt_et_al']
1441,CC[C@H]1CSC(=[NH+:8]1)CC,O,0,0,5.36,['5.36'],['hunt_et_al']
1442,C[C@H]1C[NH+:6]=C(S1)C,O,0,0,5.256,['5.256'],['hunt_et_al']
1443,C[C@H]1C[NH+:8]=C(S1)C(C)C,O,0,0,5.164,['5.164'],['hunt_et_al']
1444,CC(C)c1cccc(=O)c(c1Br)[OH:12],O,0,0,4.68,['4.68'],['hunt_et_al']
1445,CC(C)c1cc(c(=O)ccc1Br)[OH:12],O,0,0,4.54,['4.54'],['hunt_et_al']
1446,CC(C)c1ccc(c(=O)c(c1)[OH:12])Br,O,0,0,4.28,['4.28'],['hunt_et_al']
1447,CC(C)c1ccc(c(=O)c(c1Br)[OH:12])Br,O,0,0,4.44,['4.44'],['hunt_et_al']
1448,C1CC2CCC1C[NH2+:9]C2,O,0,0,10.57,['10.57'],['hunt_et_al']
1449,C[NH+:10]1CC2CCC(C1)CC2,O,0,0,10.24,['10.24'],['hunt_et_al']
1450,C1CC[C@@H]2C[NH2+:10]CC[C@H]2C1,O,0,0,11.32,['11.32'],['hunt_et_al']
1451,C1CC[C@@H]2[C@H](C1)CCC[NH2+:10]2,O,0,0,11.29,['11.29'],['hunt_et_al']
1452,C[C@@H]1C[C@@H]([C@@H]2CCCC[C@@H]2[NH2+:11]1)Cl,O,0,0,9.67,['9.67'],['hunt_et_al']
1453,C[C@H]1C[C@@H]([C@@H]2CCCC[C@H]2[NH2+:11]1)ON(=O)=O,O,0,0,9.36,['9.36'],['hunt_et_al']
1454,c1c(cc(c2c1COCO2)[NH+:13](CCCl)CCCl)Cl,O,0,0,6.9,['6.9'],['hunt_et_al']
1455,c1ccc2c(c1)ccc3c2c(=O)cc(o3)c4cccc(c4)[NH3+:20],O,0,0,3.23,['3.23'],['hunt_et_al']
1456,c1ccc2c(c1)ccc3c2c(=O)cc(o3)c4ccc(cc4)[NH3+:20],O,0,0,2.97,['2.97'],['hunt_et_al']
1457,C[NH2+:20]CCCN1c2ccccc2CCc3c1cccc3,O,0,0,10.16,['10.16'],['hunt_et_al']
1458,C[NH+:19](C)CCCN1c2ccccc2Sc3c1cc(cc3)Cl,O,0,0,9.24,['9.24'],['hunt_et_al']
1459,CC(=O)c1cc(ccc1N(=O)=O)[NH3+:9],O,0,0,-0.14,['-0.14'],['hunt_et_al']
1460,c1ccc(cc1)C[NH2+:14]c2ccccc2,O,0,0,4.04,['4.04'],['hunt_et_al']
1461,c1ccc(cc1)Cc2ccc(cc2)[NH3+:14],O,0,0,4.78,['4.78'],['hunt_et_al']
1462,CC[NH+:11](CC)c1ccc(cc1)Br,O,0,0,5.81,['5.81'],['hunt_et_al']
1463,Cc1cc(ccc1Br)[NH3+:8],O,0,0,4.05,['4.05'],['hunt_et_al']
1464,c1cc(c(cc1N(=O)=O)[NH3+:7])Br,O,0,0,0.52,['0.52'],['hunt_et_al']
1465,c1cc(c(cc1[NH3+:7])N(=O)=O)Br,O,0,0,1.8,['1.8'],['hunt_et_al']
1466,CCCCOc1ccc(c(c1)N(=O)=O)[NH3+:11],O,0,0,0.74,['0.74'],['hunt_et_al']
1467,c1cc(c(cc1[NH3+:7])Cl)F,O,0,0,3.66,['3.66'],['hunt_et_al']
1468,COc1ccc(cc1[NH3+:8])Cl,O,0,0,3.56,['3.56'],['hunt_et_al']
1469,Cc1cc(ccc1[NH3+:8])Cl,O,0,0,3.848,['3.848'],['hunt_et_al']
1470,CS(=O)(=O)c1ccc(c(c1)Cl)[NH3+:8],O,0,0,-0.41,['-0.41'],['hunt_et_al']
1471,CS(=O)(=O)c1ccc(cc1Cl)[NH3+:8],O,0,0,0.47,['0.47'],['hunt_et_al']
1472,CSc1ccc(c(c1)Cl)[NH3+:8],O,0,0,2.56,['2.56'],['hunt_et_al']
1473,CSc1ccc(cc1Cl)[NH3+:8],O,0,0,3.38,['3.38'],['hunt_et_al']
1474,c1cc(c(cc1N(=O)=O)Cl)[NH3+:7],O,0,0,-0.94,['-0.94'],['hunt_et_al']
1475,c1cc(c(cc1N(=O)=O)[NH3+:7])Cl,O,0,0,0.64,['0.64'],['hunt_et_al']
1476,c1c(cc(cc1[NH3+:9])N(=O)=O)C#N,O,0,0,0.45,['0.45'],['hunt_et_al']
1477,c1cc(ccc1C2CCC2)[NH3+:11],O,0,0,4.8,['4.8'],['hunt_et_al']
1478,c1cc(ccc1C2CCCC2)[NH3+:12],O,0,0,5.1,['5.1'],['hunt_et_al']
1479,c1ccc(c(c1)C2CC2)[NH3+:10],O,0,0,4.3,['4.3'],['hunt_et_al']
1480,c1cc(ccc1C2CC2)[NH3+:10],O,0,0,4.9,['4.9'],['hunt_et_al']
1481,c1cc(c(cc1Br)[NH3+:7])Br,O,0,0,1.44,['1.44'],['hunt_et_al']
1482,CCCCOc1ccc(c(c1)[NH3+:15])OCCCC,O,0,0,3.96,['3.96'],['hunt_et_al']
1483,c1cc(c(c(c1)Cl)[NH3+:7])Cl,O,0,0,0.422,['0.422'],['hunt_et_al']
1484,c1c(cc(cc1Cl)Cl)[NH3+:7],O,0,0,2.371,['2.371'],['hunt_et_al']
1485,CSc1cc(c(cc1Cl)[NH3+:8])Cl,O,0,0,1.7,['1.7'],['hunt_et_al']
1486,CSc1c(cc(cc1Cl)[NH3+:8])Cl,O,0,0,1.67,['1.67'],['hunt_et_al']
1487,CCOc1ccc(c(c1)[NH3+:11])OCC,O,0,0,3.94,['3.94'],['hunt_et_al']
1488,CC[NH+:11](CC)c1ccc(cc1)N(=O)=O,O,0,0,1.75,['1.75'],['hunt_et_al']
1489,CSc1c(cc(cc1I)[NH3+:8])I,O,0,0,1.15,['1.15'],['hunt_et_al']
1490,COc1ccc(c(c1)[NH3+:9])OC,O,0,0,3.93,['3.93'],['hunt_et_al']
1491,c1cc(c(cc1[NH3+:7])N(=O)=O)N(=O)=O,O,0,0,-1.2,['-1.2'],['hunt_et_al']
1492,c1c(cc(cc1N(=O)=O)N(=O)=O)[NH3+:7],O,0,0,0.229,['0.229'],['hunt_et_al']
1493,CCOC(=O)c1cc(cc(c1)N(=O)=O)[NH3+:10],O,0,0,0.98,['0.98'],['hunt_et_al']
1494,CCC(CC)C[N@@H+:21](CC[N+]1(CCCCC1)C)c2ccccc2,O,0,0,3.79,['3.79'],['hunt_et_al']
1495,c1cc(c(cc1F)N(=O)=O)[NH3+:7],O,0,0,-0.44,['-0.44'],['hunt_et_al']
1496,c1cc(c(cc1[NH3+:7])N(=O)=O)F,O,0,0,2.44,['2.44'],['hunt_et_al']
1497,CCCCCCC[N@@H+:22](CC[N+]1(CCCCC1)C)c2ccccc2,O,0,0,3.21,['3.21'],['hunt_et_al']
1498,CCCCCC[N@@H+:21](CC[N+]1(CCCCC1)C)c2ccccc2,O,0,0,3.13,['3.13'],['hunt_et_al']
1499,CSc1ccc(c(c1)I)[NH3+:8],O,0,0,2.45,['2.45'],['hunt_et_al']
1500,CSc1ccc(cc1I)[NH3+:8],O,0,0,3.44,['3.44'],['hunt_et_al']
1501,c1c(cc(cc1N(=O)=O)I)[NH3+:7],O,0,0,1.44,['1.44'],['hunt_et_al']
1502,CC(C)C[N@@H+:19](CC[N+]1(CCCCC1)C)c2ccccc2,O,0,0,3.02,['3.02'],['hunt_et_al']
1503,CC(C)CC[N@@H+:20](CC[N+]1(CCCCC1)C)c2ccccc2,O,0,0,3.06,['3.06'],['hunt_et_al']
1504,CC(C)c1ccc(cc1)[NH3+:10],O,0,0,4.85,['4.85'],['hunt_et_al']
1505,CC(C)[N@H+:18](CC[N+]1(CCCCC1)C)c2ccccc2,O,0,0,3.26,['3.26'],['hunt_et_al']
1506,CC(C)[NH2+:10]c1ccc(cc1)N(=O)=O,O,0,0,1.32,['1.32'],['hunt_et_al']
1507,CC(C)S(=O)(=O)c1ccc(cc1)[NH3+:10],O,0,0,1.4,['1.4'],['hunt_et_al']
1508,CC(C)Sc1ccc(cc1)[NH3+:10],O,0,0,3.89,['3.89'],['hunt_et_al']
1509,Cc1cc(ccc1C(=O)OC)[NH3+:10],O,0,0,2.73,['2.73'],['hunt_et_al']
1510,COc1ccc(cc1[NH3+:8])N(=O)=O,O,0,0,2.49,['2.49'],['hunt_et_al']
1511,COc1ccc(c(c1)N(=O)=O)[NH3+:8],O,0,0,0.77,['0.77'],['hunt_et_al']
1512,COc1ccc(cc1N(=O)=O)[NH3+:8],O,0,0,3.36,['3.36'],['hunt_et_al']
1513,COc1ccc(c(c1)[NH3+:8])N(=O)=O,O,0,0,-0.72,['-0.72'],['hunt_et_al']
1514,COc1ccc(cc1)Sc2ccc(cc2)[NH3+:14],O,0,0,3.94,['3.94'],['hunt_et_al']
1515,C[N@H+:16](CC[N+]1(CCCCC1)C)c2ccccc2,O,0,0,2.61,['2.61'],['hunt_et_al']
1516,C[NH2+:9]c1ccccc1SC,O,0,0,3.71,['3.71'],['hunt_et_al']
1517,C[N+]1(CCCCC1)CC[NH+:21](c2ccccc2)c3ccccc3,O,0,0,-1.5,['-1.5'],['hunt_et_al']
1518,C[NH2+:8]c1ccc(cc1)N(=O)=O,O,0,0,0.55,['0.55'],['hunt_et_al']
1519,Cc1ccc(cc1[NH3+:8])N(=O)=O,O,0,0,2.345,['2.345'],['hunt_et_al']
1520,Cc1cc(cc(c1)N(=O)=O)[NH3+:8],O,0,0,2.38,['2.38'],['hunt_et_al']
1521,CCCCCCCC[N@@H+:23](CC[N+]1(CCCCC1)C)c2ccccc2,O,0,0,3.32,['3.32'],['hunt_et_al']
1522,CCCCC[N@@H+:20](CC[N+]1(CCCCC1)C)c2ccccc2,O,0,0,2.96,['2.96'],['hunt_et_al']
1523,CCC[C@@H](C)[N@@H+:20](CC[N+]1(CCCCC1)C)c2ccccc2,O,0,0,3.42,['3.42'],['hunt_et_al']
1524,CCC[N@@H+:18](CC[N+]1(CCCCC1)C)c2ccccc2,O,0,0,2.82,['2.82'],['hunt_et_al']
1525,CSc1ccccc1[NH3+:8],O,0,0,3.45,['3.45'],['hunt_et_al']
1526,CSc1ccc(c(c1)N(=O)=O)[NH3+:8],O,0,0,-0.28,['-0.28'],['hunt_et_al']
1527,CSc1ccc(cc1N(=O)=O)[NH3+:8],O,0,0,2.47,['2.47'],['hunt_et_al']
1528,c1ccc(cc1)c2ccc(c(c2)N(=O)=O)[NH3+:13],O,0,0,-0.76,['-0.76'],['hunt_et_al']
1529,c1c(cc(cc1[NH3+:8])N(=O)=O)C(F)(F)F,O,0,0,0.82,['0.82'],['hunt_et_al']
1530,c1cc(c(cc1[NH3+:8])C(F)(F)F)N(=O)=O,O,0,0,-0.05,['-0.05'],['hunt_et_al']
1531,Cc1cc(c(c(c1)C)[NH+:12](C)C)C,O,0,0,4.84,['4.84'],['hunt_et_al']
1532,C=C(c1ccccc1)c2ccc(cc2)[NH3+:15],O,0,0,4.18,['4.18'],['hunt_et_al']
1533,c1ccc(cc1)Sc2ccccc2[NH3+:13],O,0,0,2.5,['2.5'],['hunt_et_al']
1534,c1cc(cc(c1)OC(C(F)F)(F)F)[NH3+:9],O,0,0,3.38,['3.38'],['hunt_et_al']
1535,c1cc(ccc1[NH3+:9])OC(C(F)F)(F)F,O,0,0,3.98,['3.98'],['hunt_et_al']
1536,c1cc(cc(c1)SC(C(F)F)(F)F)[NH3+:9],O,0,0,3.39,['3.39'],['hunt_et_al']
1537,c1cc(ccc1[NH3+:9])SC(C(F)F)(F)F,O,0,0,2.87,['2.87'],['hunt_et_al']
1538,Cc1cc(c(c(c1)C)[NH2+:11]C)C,O,0,0,5.47,['5.47'],['hunt_et_al']
1539,c1c(c(cc(c1Cl)Cl)Cl)[NH3+:7],O,0,0,1.09,['1.09'],['hunt_et_al']
1540,c1c(cc(c(c1Cl)[NH3+:7])Cl)Cl,O,0,0,-0.03,['-0.03'],['hunt_et_al']
1541,c1cc(cc(c1)OC(F)(F)F)[NH3+:8],O,0,0,3.25,['3.25'],['hunt_et_al']
1542,c1ccc(c(c1)[NH3+:8])OC(F)(F)F,O,0,0,2.44,['2.44'],['hunt_et_al']
1543,c1cc(ccc1[NH3+:8])OC(F)(F)F,O,0,0,3.82,['3.82'],['hunt_et_al']
1544,c1cc(cc(c1)S(=O)(=O)C(F)(F)F)[NH3+:8],O,0,0,1.79,['1.79'],['hunt_et_al']
1545,c1cc(cc(c1)SC(F)(F)F)[NH3+:8],O,0,0,3.3,['3.3'],['hunt_et_al']
1546,c1cc(ccc1[NH3+:8])SC(F)(F)F,O,0,0,2.78,['2.78'],['hunt_et_al']
1547,Cc1ccc(c(c1)C)[NH2+:10]C,O,0,0,4.56,['4.56'],['hunt_et_al']
1548,c1ccc(cc1)OC2=C(C(=O)C(=C(C2=O)O)Oc3ccccc3)[OH:21],O,0,0,2.0,['2.0'],['hunt_et_al']
1549,c1ccc(cc1)OC2=C(C(=O)C(=C(C2=O)[O-])Oc3ccccc3)[OH:21],O,0,0,3.0,['3.0'],['hunt_et_al']
1550,C[C@@]12CC[C@H]3c4ccc(cc4CC[C@@H]3[C@@H]1CCC2=O)[OH:20],O,0,0,10.91,['10.91'],['hunt_et_al']
1551,CC(C)(C)c1cc(c(c(c1)C(C)(C)C)[OH:19])C(C)(C)C,O,0,0,12.19,['12.19'],['hunt_et_al']
1552,c1ccc2cc(ccc2c1)OP(=O)([OH:22])Oc3ccc4ccccc4c3,O,0,0,0.74,['0.74'],['hunt_et_al']
1553,CC(=O)Oc1cccc(c1)C(=O)[OH:12],O,0,0,4.0,['4.0'],['hunt_et_al']
1554,CC(=O)c1ccccc1C(=O)[OH:12],O,0,0,4.13,['4.13'],['hunt_et_al']
1555,CC(=O)c1cccc(c1)C(=O)[OH:12],O,0,0,3.83,['3.83'],['hunt_et_al']
1556,CC(=O)c1ccc(cc1)C(=O)[OH:12],O,0,0,3.7,['3.7'],['hunt_et_al']
1557,C[C@H](CC=C)C(=O)[OH:8],O,0,0,4.72,['4.72'],['hunt_et_al']
1558,c1ccc(cc1)c2ccc(cc2)[NH3+:13],O,0,0,4.27,['4.27'],['hunt_et_al']
1559,CC[C@H](C(=O)OC)[NH3+:6],O,0,0,7.64,['7.64'],['hunt_et_al']
1560,c1ccnc(c1)CC[NH3+:9],O,0,0,9.78,['9.78'],['hunt_et_al']
1561,Cc1ccc(cn1)C[NH3+:9],O,0,0,8.7,['8.7'],['hunt_et_al']
1562,Cc1ccc([nH+:7]c1)N,O,0,0,7.22,['7.22'],['hunt_et_al']
1563,Cc1cccc([nH+:7]1)N,O,0,0,7.41,['7.41'],['hunt_et_al']
1564,c1cc(ccc1CC(=O)[OH:11])N,O,0,0,3.6,['3.6'],['hunt_et_al']
1565,c1cc(ccc1CC(=O)O)[NH3+:9],O,0,0,5.26,['5.26'],['hunt_et_al']
1566,c1cc(ccc1CC(=O)[O-])[NH3+:9],O,0,0,5.26,['5.26'],['hunt_et_al']
1567,c1cc(ccc1CC(=O)[OH:11])[NH3+],O,0,0,3.6,['3.6'],['hunt_et_al']
1568,C1CCC[NH2+:8]CCC1,O,0,0,11.1,['11.1'],['hunt_et_al']
1569,C/C=C/C(=O)[OH:6],O,0,0,4.44,['4.44'],['hunt_et_al']
1570,CCCC[P@@H](=O)[OH:6],O,0,0,3.41,['3.41'],['hunt_et_al']
1571,CC[C@@H](C(=O)[OH:6])Cl,O,0,0,2.86,['2.86'],['hunt_et_al']
1572,C[C@H](CC(=O)[OH:6])Cl,O,0,0,4.05,['4.05'],['hunt_et_al']
1573,C(CC(=O)[OH:6])CCl,O,0,0,4.5,['4.5'],['hunt_et_al']
1574,C/C=C(/C(=O)[OH:6])\Cl,O,0,0,2.8,['2.8'],['hunt_et_al']
1575,C([C@H](C(=O)[OH:5])O)Cl,O,0,0,3.12,['3.12'],['hunt_et_al']
1576,C[C@@H](C(=O)[OH:11])Oc1ccc(cc1)Cl,O,0,0,3.26,['3.26'],['hunt_et_al']
1577,Cc1c(cccc1Cl)[NH3+:8],O,0,0,2.49,['2.49'],['hunt_et_al']
1578,Cc1ccc(cc1[NH3+:8])Cl,O,0,0,3.85,['3.85'],['hunt_et_al']
1579,Cc1cccc(c1[NH3+:8])Cl,O,0,0,3.62,['3.62'],['hunt_et_al']
1580,C(C(=O)[OH:4])(Br)Br,O,0,0,1.39,['1.39'],['hunt_et_al']
1581,CC(C(=O)[OH:5])(Br)Br,O,0,0,1.48,['1.48'],['hunt_et_al']
1582,C([C@@H](C(=O)[OH:5])Br)Br,O,0,0,2.33,['2.33'],['hunt_et_al']
1583,C(C(=O)C(Cl)Cl)C(=O)[OH:7],O,0,0,2.11,['2.11'],['hunt_et_al']
1584,C([C@@H](C(=O)[OH:5])Cl)Cl,O,0,0,2.85,['2.85'],['hunt_et_al']
1585,C1CCC(CC1)[NH2+:13]C2CCCCC2,O,0,0,11.25,['11.25'],['hunt_et_al']
1586,CCOCC[NH2+:9]CCOCC,O,0,0,8.47,['8.47'],['hunt_et_al']
1587,CC[NH+:14](CC)CCOC(=O)c1ccccc1,O,0,0,8.85,['8.85'],['hunt_et_al']
1588,C(C(=O)[OH:4])(F)F,O,0,0,1.33,['1.33'],['hunt_et_al']
1589,Cc1c(cccc1O)[OH:8],O,0,0,10.05,['10.05'],['hunt_et_al']
1590,C(C(CO)(CO)C(=O)[OH:7])O,O,0,0,4.46,['4.46'],['hunt_et_al']
1591,COCC[NH2+:7]CCOC,O,0,0,9.51,['9.51'],['hunt_et_al']
1592,COc1cc(cc(c1)OC)[OH:9],O,0,0,9.345,['9.345'],['hunt_et_al']
1593,C(=O)C(=O)[OH:5],O,0,0,3.18,['3.18'],['hunt_et_al']
1594,CCOC(=O)CC[NH3+:6],O,0,0,9.1,['9.1'],['hunt_et_al']
1595,CCc1ccc(cc1)[NH3+:9],O,0,0,5.0,['5.0'],['hunt_et_al']
1596,C(C(=O)[OH:7])N(=O)=O,O,0,0,1.48,['1.48'],['hunt_et_al']
1597,CC[P@@H](=O)[OH:4],O,0,0,3.29,['3.29'],['hunt_et_al']
1598,CC[NH+:7]1CCCC1,O,0,0,10.43,['10.43'],['hunt_et_al']
1599,CC[N@@H+:30]1C[C@H](C[C@H]([C@@H]1[C@H](C)c2ccc3c(c2C)C[C@@H]4[C@H]3CC=C5[C@@]4(CC[C@H](C5)O)C)O)C,O,0,0,7.4,['7.4'],['hunt_et_al']
1600,C[Si](C)(C)[NH2+:7][Si](C)(C)C,O,0,0,7.55,['7.55'],['hunt_et_al']
1601,CCCCCC(=O)[OH:8],O,0,0,4.849,['4.849'],['hunt_et_al']
1602,CC/C=C(/CC)\C(=O)[OH:9],O,0,0,4.58,['4.58'],['hunt_et_al']
1603,c1ccc(c(c1)C=O)[OH:9],O,0,0,8.34,['8.34'],['hunt_et_al']
1604,c1cc(c(cc1Cl)C(=O)[OH:10])O,O,0,0,2.63,['2.63'],['hunt_et_al']
1605,COc1cc(ccc1O)C(=O)[OH:11],O,0,0,4.355,['4.355'],['hunt_et_al']
1606,c1ccc(c(c1)CC(=O)[OH:11])CO,O,0,0,4.12,['4.12'],['hunt_et_al']
1607,Cc1cccc(c1O)C(=O)[OH:11],O,0,0,2.99,['2.99'],['hunt_et_al']
1608,Cc1ccc(c(c1)O)C(=O)[OH:11],O,0,0,3.17,['3.17'],['hunt_et_al']