,Solute SMILES,Solvent SMILES,Solute CAS,Solute IUPAC,pKa (avg),pKa (all),Source
1609,Cc1ccc(c(c1)C(=O)[OH:11])O,O,0,0,4.08,['4.08'],['hunt_et_al']
1610,Cc1cccc(c1C(=O)[OH:11])O,O,0,0,3.32,['3.32'],['hunt_et_al']
1611,c1ccc2c(c1)ccc(c2C(=O)[OH:14])O,O,0,0,3.29,['3.29'],['hunt_et_al']
1612,c1cc(c(c(c1)N(=O)=O)O)C(=O)[OH:13],O,0,0,1.87,['1.87'],['hunt_et_al']
1613,c1cc(c(c(c1)O)C(=O)[OH:13])N(=O)=O,O,0,0,2.24,['2.24'],['hunt_et_al']
1614,c1cc(ccc1C(F)(F)F)[OH:8],O,0,0,8.675,['8.675'],['hunt_et_al']
1615,CC(C)(C)CC(=O)[OH:8],O,0,0,4.79,['4.79'],['hunt_et_al']
1616,CC(C)[P@@H](=O)[OH:5],O,0,0,3.56,['3.56'],['hunt_et_al']
1617,CCOC(=O)[C@H](CC(C)C)[NH3+:9],O,0,0,7.57,['7.57'],['hunt_et_al']
1618,COCC(=O)[OH:5],O,0,0,3.57,['3.57'],['hunt_et_al']
1619,COC(=O)C[NH3+:4],O,0,0,7.66,['7.66'],['hunt_et_al']
1620,Cc1c(cc(cc1N(=O)=O)N(=O)=O)C(=O)[OH:16],O,0,0,2.97,['2.97'],['hunt_et_al']
1621,CC1CC[NH2+:7]CC1,O,0,0,11.23,['11.23'],['hunt_et_al']
1622,C[C@@H](C(=O)[OH:8])N(=O)=O,O,0,0,3.79,['3.79'],['hunt_et_al']
1623,c1ccc(cc1)[C@@H](CO)C(=O)[OH:11],O,0,0,3.53,['3.53'],['hunt_et_al']
1624,C1C[C@@H](CNC1)C(=O)[OH:9],O,0,0,3.35,['3.35'],['hunt_et_al']
1625,C1C[C@@H](C[NH2+:7]C1)C(=O)O,O,0,0,10.64,['10.64'],['hunt_et_al']
1626,C1C[C@@H](C[NH2+:7]C1)C(=O)[O-],O,0,0,10.64,['10.64'],['hunt_et_al']
1627,C1C[C@@H](C[NH2+]C1)C(=O)[OH:9],O,0,0,3.35,['3.35'],['hunt_et_al']
1628,C1C[C@@H](NC1)C(=O)[OH:8],O,0,0,1.99,['1.99'],['hunt_et_al']
1629,C1C[C@@H]([NH2+:6]C1)C(=O)O,O,0,0,10.96,['10.96'],['hunt_et_al']
1630,C1C[C@@H]([NH2+:6]C1)C(=O)[O-],O,0,0,10.96,['10.96'],['hunt_et_al']
1631,C1C[C@@H]([NH2+]C1)C(=O)[OH:8],O,0,0,1.99,['1.99'],['hunt_et_al']
1632,C[C@H]1C[NH2+:4]1,O,0,0,8.18,['8.18'],['hunt_et_al']
1633,c1ccn(c1)C(=O)[OH:8],O,0,0,4.45,['4.45'],['hunt_et_al']
1634,C(=O)(C(Br)(Br)Br)[OH:4],O,0,0,-0.147,['-0.147'],['hunt_et_al']
1635,c1c(cc(c(c1Br)C(=O)[OH:9])Br)Br,O,0,0,1.41,['1.41'],['hunt_et_al']
1636,C(C(=O)[OH:5])C(Cl)(Cl)Cl,O,0,0,0.52,['0.52'],['hunt_et_al']
1637,[C@H](C(=O)[OH:5])(C(Cl)(Cl)Cl)O,O,0,0,2.34,['2.34'],['hunt_et_al']
1638,c1c(c(cc(c1Cl)Cl)Cl)[OH:7],O,0,0,7.37,['7.37'],['hunt_et_al']
1639,c1cc(cc(c1)[OH:8])C(F)(F)F,O,0,0,8.95,['8.95'],['hunt_et_al']
1640,Cc1ccc(c(c1C)C)[OH:10],O,0,0,10.59,['10.59'],['hunt_et_al']
1641,Cc1cc(c(cc1C)[OH:10])C,O,0,0,10.57,['10.57'],['hunt_et_al']
1642,Cc1cc(cc(c1C)C)[OH:10],O,0,0,10.25,['10.25'],['hunt_et_al']
1643,C(C[NH3+:5])C#N,O,0,0,7.75,['7.75'],['hunt_et_al']
1644,c1cc(c(cc1[OH:13])N(=O)=O)N(=O)=O,O,0,0,5.42,['5.42'],['hunt_et_al']
1645,c1cc(ccc1N(=O)=O)OCC(=O)[OH:13],O,0,0,2.893,['2.893'],['hunt_et_al']
1646,C[NH2+:10]CCc1ccc(cc1)O,O,0,0,9.36,['9.36'],['hunt_et_al']
1647,CC(C)c1ccccc1C(=O)[OH:12],O,0,0,3.63,['3.63'],['hunt_et_al']
1648,C1CSS[C@@H]1CCCCC(=O)[OH:10],O,0,0,5.4,['5.4'],['hunt_et_al']
1649,c1cc(ccc1CCC(=O)[OH:11])Cl,O,0,0,4.61,['4.61'],['hunt_et_al']
1650,CC[NH+:7](CC)CCO,O,0,0,9.87,['9.87'],['hunt_et_al']
1651,c1cc(ccc1C#N)OCC(=O)[OH:12],O,0,0,2.93,['2.93'],['hunt_et_al']
1652,C(CCO)C[NH3+:5],O,0,0,10.35,['10.35'],['hunt_et_al']
1653,c1cc(cc(c1)OCC(=O)[OH:13])N(=O)=O,O,0,0,2.95,['2.95'],['hunt_et_al']
1654,CC(=O)Oc1ccccc1C(=O)[OH:12],O,0,0,3.5,['3.5'],['hunt_et_al']
1655,CC(C)(C(=O)[OH:6])O,O,0,0,4.04,['4.04'],['hunt_et_al']
1656,COc1cccc(c1O)C[NH3+:9],O,0,0,10.52,['10.52'],['hunt_et_al']
1657,C[C@@H]1CCC[C@@H]([NH+:9]1C)C,O,0,0,10.15,['10.15'],['hunt_et_al']
1658,C[C@H](C[N@H+:7](C)CCO)O,O,0,0,8.7,['8.7'],['hunt_et_al']
1659,c1cc(cc(c1)Br)OCC(=O)[OH:10],O,0,0,3.095,['3.095'],['hunt_et_al']
1660,C[N+](C)(C)c1cccc(c1)[OH:11],O,0,0,8.06,['8.06'],['hunt_et_al']
1661,c1cc2c(ccc(c2nc1)[OH:11])Cl,O,0,0,9.05,['9.05'],['hunt_et_al']
1662,CCOP(=O)(c1cccc(c1)C(=O)[OH:14])OCC,O,0,0,3.65,['3.65'],['hunt_et_al']
1663,C[NH+:9]1[C@@H]2CC[C@H]1CC(C2)O,O,0,0,10.06,['10.06'],['hunt_et_al']
1664,c1cc2c(nc1)ncc(n2)[OH:11],O,0,0,7.88,['7.88'],['hunt_et_al']
1665,c1cc(ccc1CC[NH3+:9])O,O,0,0,10.9,['10.9'],['hunt_et_al']
1666,CC[C@@](C)(C[NH+:15](C)C)OC(=O)c1ccccc1,O,0,0,8.09,['8.09'],['hunt_et_al']
1667,CCC(=C)C(=O)c1ccc(c(c1Cl)Cl)OCC(=O)[OH:16],O,0,0,3.1,['3.1'],['hunt_et_al']
1668,Cc1cc(cc(c1[OH:12])C)N(=O)=O,O,0,0,7.19,['7.19'],['hunt_et_al']
1669,CC(C)c1cccc(=O)c(c1)[OH:12],O,0,0,7.21,['7.21'],['hunt_et_al']
1670,C[N+](C)(C)c1ccc(cc1)[OH:11],O,0,0,8.35,['8.35'],['hunt_et_al']
1671,C[C@@](CC(=O)[OH:18])(c1ccc(cc1)N(=O)=O)C(=O)OC,O,0,0,4.07,['4.07'],['hunt_et_al']
1672,c1cnccc1[OH:7],O,0,0,11.12,['11.12'],['hunt_et_al']
1673,Cc1ccc(cc1)CC(=O)[OH:11],O,0,0,4.37,['4.37'],['hunt_et_al']
1674,c1cc(c(cc1Cl)Cl)[OH:7],O,0,0,7.892,['7.892'],['hunt_et_al']
1675,c1ccc-2ccc(c2cc1)C(=O)[OH:13],O,0,0,5.5,['5.5'],['hunt_et_al']
1676,C[N@H+:9]1CCC=C(C1)C(=O)OC,O,0,0,7.64,['7.64'],['hunt_et_al']
1677,CCc1cccc(c1)[OH:9],O,0,0,9.9,['9.9'],['hunt_et_al']
1678,c1cnc2c(n1)c[nH+:9]c(n2)N,O,0,0,4.26,['4.26'],['hunt_et_al']
1679,CC(C)[NH2+:12]C[C@@H](c1cccc(c1)F)O,O,0,0,9.48,['9.48'],['hunt_et_al']
1680,Cc1cc(nc([nH+:7]1)N)C,O,0,0,5.0,['5.0'],['hunt_et_al']
1681,CC[C@@H](C)CC(=O)[OH:8],O,0,0,4.766,['4.766'],['hunt_et_al']
1682,C[C@H](CC(C#N)(c1ccccc1)c2ccccc2)[NH+:24]3CCCCC3,O,0,0,7.68,['7.68'],['hunt_et_al']
1683,c1ccc(cc1)[OH:7],O,0,0,9.99,['9.99'],['hunt_et_al']
1684,c1ccc(cc1)[C@H](C(=O)[OH:10])O,O,0,0,3.19,['3.19'],['hunt_et_al']
1685,CCc1ccccc1[OH:9],O,0,0,10.2,['10.2'],['hunt_et_al']
1686,CC[C@H](CO)[NH3+:5],O,0,0,9.52,['9.52'],['hunt_et_al']
1687,c1cc(c(c(c1)N(=O)=O)[OH:13])N(=O)=O,O,0,0,3.71,['3.71'],['hunt_et_al']
1688,C(C(=O)[OH:4])I,O,0,0,3.18,['3.18'],['hunt_et_al']
1689,C[C@H](C[NH+:10](CC=C)C[C@@H](C)O)O,O,0,0,8.2,['8.2'],['hunt_et_al']
1690,CC(=O)CCC(=O)[OH:8],O,0,0,4.64,['4.64'],['hunt_et_al']
1691,C=C[C@H](C(=O)[OH:6])Cl,O,0,0,2.54,['2.54'],['hunt_et_al']
1692,C[C@@H](C(=O)[OH:5])O,O,0,0,3.861,['3.861'],['hunt_et_al']
1693,c1c(cc(c(c1N(=O)=O)[OH:13])N(=O)=O)Cl,O,0,0,2.97,['2.97'],['hunt_et_al']
1694,C(C(F)(F)F)[NH3+:3],O,0,0,5.7,['5.7'],['hunt_et_al']
1695,CC[N@@H+:8](CCO)C[C@@H](C)O,O,0,0,8.9,['8.9'],['hunt_et_al']
1696,CSc1cccc(c1)[OH:8],O,0,0,9.53,['9.53'],['hunt_et_al']
1697,CC(=O)C(=O)[OH:6],O,0,0,2.49,['2.49'],['hunt_et_al']
1698,Cc1ccc(cc1)CCC(=O)[OH:12],O,0,0,4.68,['4.68'],['hunt_et_al']
1699,CC[NH+:9](CC)CCC#N,O,0,0,8.29,['8.29'],['hunt_et_al']
1700,c1ccc(cc1)c2ccccc2[OH:13],O,0,0,10.01,['10.01'],['hunt_et_al']
1701,C=CC[NH2+:10]c1ccccc1,O,0,0,3.56,['3.56'],['hunt_et_al']
1702,CC#CC(=O)[OH:6],O,0,0,2.65,['2.65'],['hunt_et_al']
1703,CC(=O)c1cccc(c1)[OH:10],O,0,0,9.25,['9.25'],['hunt_et_al']
1704,CC(=O)OCCCC[NH+:9](C)C,O,0,0,9.4,['9.4'],['hunt_et_al']
1705,c1cc(ccc1CC(=O)[OH:10])F,O,0,0,4.25,['4.25'],['hunt_et_al']
1706,C(=C/Cl)\C(=O)[OH:5],O,0,0,3.79,['3.79'],['hunt_et_al']
1707,C[NH2+:11]CCCc1ccccc1,O,0,0,10.43,['10.43'],['hunt_et_al']
1708,C(C#N)C(=O)[OH:6],O,0,0,2.45,['2.45'],['hunt_et_al']
1709,C[S@](=O)[OH:3],O,0,0,1.65,['1.65'],['hunt_et_al']
1710,C[C@H](Cc1ccccc1)[NH2+:11]C,O,0,0,9.99,['9.99'],['hunt_et_al']
1711,Cc1ccc2cccc(c2n1)[OH:12],O,0,0,10.31,['10.31'],['hunt_et_al']
1712,C(C(CCl)(Cl)Cl)[NH3+:4],O,0,0,6.0,['6.0'],['hunt_et_al']
1713,C1CCC(C1)[NH3+:6],O,0,0,10.65,['10.65'],['hunt_et_al']
1714,CCCCC(=O)[OH:7],O,0,0,4.85,['4.85'],['hunt_et_al']
1715,COc1ccc(cc1)CC(=O)[OH:11],O,0,0,4.36,['4.36'],['hunt_et_al']
1716,c1ccc(cc1)C[S@](=O)[OH:9],O,0,0,1.45,['1.45'],['hunt_et_al']
1717,CC[C@@H](C)[NH2+:9][C@H](C)CC,O,0,0,10.91,['10.91'],['hunt_et_al']
1718,CC[NH+:12](CC)CCCP(=O)(OCC)OCC,O,0,0,9.35,['9.35'],['hunt_et_al']
1719,C(C(=O)[OH:6])C(=O)O,O,0,0,2.85,['2.85'],['hunt_et_al']
1720,c1ccc(c(c1)/C=C/C(=O)[OH:11])Br,O,0,0,4.33,['4.33'],['hunt_et_al']
1721,CCC[C@H](C)C(=O)[OH:8],O,0,0,4.782,['4.782'],['hunt_et_al']
1722,CC(C)(C)[NH+:7](C)C,O,0,0,10.29,['10.29'],['hunt_et_al']
1723,c1ccc2c(c1)cccc2CC(=O)[OH:14],O,0,0,4.23,['4.23'],['hunt_et_al']
1724,CC(C)(C)c1cccc(c1)C(=O)[OH:13],O,0,0,4.204,['4.204'],['hunt_et_al']
1725,c1cc(c(cc1N(=O)=O)Cl)C(=O)[OH:12],O,0,0,1.96,['1.96'],['hunt_et_al']
1726,CC(=O)[OH:4],O,0,0,4.55,['4.55'],['hunt_et_al']
1727,Cc1cc2ccccc2c(c1C)C(=O)[OH:15],O,0,0,3.28,['3.28'],['hunt_et_al']
1728,Cc1cccc(c1)C[NH3+:9],O,0,0,9.45,['9.45'],['hunt_et_al']
1729,C[NH2+:9]Cc1ccccc1,O,0,0,9.59,['9.59'],['hunt_et_al']
1730,CCOP(=O)(c1ccc(cc1)C(=O)[OH:14])OCC,O,0,0,3.6,['3.6'],['hunt_et_al']
1731,C[NH+:18]1[C@@H]2CC[C@H]1CC(C2)OC(=O)[C@H](CO)c3ccccc3,O,0,0,9.84,['9.84'],['hunt_et_al']
1732,C[C@@H](c1ccccc1)[NH3+:9],O,0,0,9.35,['9.35'],['hunt_et_al']
1733,COc1cc(ccc1[OH:11])CC=C,O,0,0,10.19,['10.19'],['hunt_et_al']
1734,c1cc(ccc1[NH3+:13])S(=O)(=O)c2ccc(cc2)Cl,O,0,0,1.38,['1.38'],['hunt_et_al']
1735,c1ccc2c(c1)c(c[nH]2)CC(=O)[OH:13],O,0,0,4.75,['4.75'],['hunt_et_al']
1736,C1CC[C@@H]([C@H](C1)C(=O)[OH:9])O,O,0,0,4.34,['4.34'],['hunt_et_al']
1737,Cc1c(c(c(c(c1[OH:11])C)C)O)C,O,0,0,11.25,['11.25'],['hunt_et_al']
1738,CC(=O)c1ccc(cc1)[OH:10],O,0,0,8.05,['8.05'],['hunt_et_al']
1739,c1cc(c(cc1N(=O)=O)N(=O)=O)[OH:13],O,0,0,4.073,['4.073'],['hunt_et_al']
1740,c1cc(c(cc1O)O)C(=O)[OH:11],O,0,0,3.22,['3.22'],['hunt_et_al']
1741,c1ccc(cc1)[C@H](C[NH3+:9])O,O,0,0,8.79,['8.79'],['hunt_et_al']
1742,C[C@H](C[NH+:8](C)C)OC(=O)C,O,0,0,8.32,['8.32'],['hunt_et_al']
1743,c1cc(c(cc1N(=O)=O)[OH:13])N(=O)=O,O,0,0,5.21,['5.21'],['hunt_et_al']
1744,c1ccc2cc(ccc2c1)CC(=O)[OH:14],O,0,0,4.3,['4.3'],['hunt_et_al']
1745,CC(C)(C)C[NH2+:12]c1ccccc1,O,0,0,4.17,['4.17'],['hunt_et_al']
1746,c1cc(ccc1CCC(=O)[OH:14])N(=O)=O,O,0,0,4.54,['4.54'],['hunt_et_al']
1747,Cc1cc(cc(c1[OH:11])C)C#N,O,0,0,8.27,['8.27'],['hunt_et_al']
1748,Cc1cc(ccc1OCC(=O)[OH:11])Cl,O,0,0,3.28,['3.28'],['hunt_et_al']
1749,COc1cc(ccc1O)C[NH3+:9],O,0,0,8.94,['8.94'],['hunt_et_al']
1750,c1cc(ccc1[C@@]23CCCC[C@@H]2C3)[NH3+:14],O,0,0,4.78,['4.78'],['hunt_et_al']
1751,Cc1c(c(nc([nH+:8]1)NC)C)Br,O,0,0,3.52,['3.52'],['hunt_et_al']
1752,c1ccc(cc1)CCC(=O)[OH:11],O,0,0,4.664,['4.664'],['hunt_et_al']
1753,Cc1cc(ccc1C(=O)[OH:13])N(=O)=O,O,0,0,2.95,['2.95'],['hunt_et_al']
1754,c1cc(ccc1CC(=O)[OH:13])N(=O)=O,O,0,0,3.85,['3.85'],['hunt_et_al']
1755,c1ccc(c(c1)C(=O)[OH:10])O,O,0,0,2.78,['2.78'],['hunt_et_al']
1756,C[NH2+:10]C[C@@H](c1ccc(cc1)O)O,O,0,0,9.6,['9.6'],['hunt_et_al']
1757,C[N@H+:18]1[C@H]2CC[C@@H]1[C@@H]([C@H](C2)OC(=O)c3ccccc3)C(=O)OC,O,0,0,8.7,['8.7'],['hunt_et_al']
1758,Cc1ccc2ccccc2c1C(=O)[OH:14],O,0,0,3.107,['3.107'],['hunt_et_al']
1759,C(C(=O)[OH:4])F,O,0,0,2.59,['2.59'],['hunt_et_al']
1760,C(C(=O)[OH:4])Cl,O,0,0,2.87,['2.87'],['hunt_et_al']
1761,C(C(=O)[OH:4])Br,O,0,0,2.89,['2.89'],['hunt_et_al']
1762,C(C(=O)[OH:4])(Cl)Cl,O,0,0,1.26,['1.26'],['hunt_et_al']
1763,C(=O)(C(Cl)(Cl)Cl)[OH:4],O,0,0,0.51,['0.51'],['hunt_et_al']
1764,C(CCl)C(=O)[OH:5],O,0,0,3.99,['3.99'],['hunt_et_al']
1765,C(CI)C(=O)[OH:5],O,0,0,4.09,['4.09'],['hunt_et_al']
1766,C/C=C/C=C/C(=O)[OH:8],O,0,0,4.5,['4.5'],['hunt_et_al']
1767,Cc1cc(nc(n1)NC(=O)[NH:19]S(=O)(=O)c2ccccc2C(=O)OC)C,O,0,0,5.2,['5.2'],['hunt_et_al']
1768,Cc1nc(nc(n1)OC)NC(=O)[NH:17]S(=O)(=O)c2ccsc2C(=O)OC,O,0,0,4.0,['4.0'],['hunt_et_al']
1769,C(C(=O)O)[SH:5],O,0,0,10.4,['10.4'],['hunt_et_al']
1770,C(C(=O)[O-])[SH:5],O,0,0,10.4,['10.4'],['hunt_et_al']
1771,Cc1nc(nc(n1)OC)NC(=O)[NH:19]S(=O)(=O)c2ccccc2OCCCl,O,0,0,4.64,['4.64'],['hunt_et_al']
1772,Cc1nc(nc(n1)OC)N(C)C(=O)[NH:19]S(=O)(=O)c2ccccc2C(=O)OC,O,0,0,4.7,['4.7'],['hunt_et_al']
1773,c1c(c(nc(c1Cl)Cl)OCC(=O)[OH:10])Cl,O,0,0,3.97,['3.97'],['hunt_et_al']
1774,Cc1cccc(c1S(=O)(=O)[NH:22]C(=O)Nc2nc(nc(n2)OCC(F)(F)F)N(C)C)C(=O)OC,O,0,0,4.4,['4.4'],['hunt_et_al']
1775,CC(=O)c1ccc(cc1)[SH:10],O,0,0,5.33,['5.33'],['hunt_et_al']
1776,C([C@H]([C@H]([C@@H]([C@H](C[SH:12])O)O)O)O)O,O,0,0,9.35,['9.35'],['hunt_et_al']
1777,C(C(F)F)[OH:3],O,0,0,13.11,['13.11'],['hunt_et_al']
1778,C(CF)[OH:3],O,0,0,14.2,['14.2'],['hunt_et_al']
1779,CS(=O)(=O)CC[SH:6],O,0,0,7.9,['7.9'],['hunt_et_al']
1780,Cc1cc(ccc1[OH:8])Cl,O,0,0,9.71,['9.71'],['hunt_et_al']
1781,c1cc(cc(c1)Cl)[SH:7],O,0,0,5.78,['5.78'],['hunt_et_al']
1782,COc1cccc(c1)[SH:9],O,0,0,6.39,['6.39'],['hunt_et_al']
1783,Cc1cccc(c1)[SH:8],O,0,0,6.66,['6.66'],['hunt_et_al']
1784,c1cc(ccc1[SH:7])Br,O,0,0,6.02,['6.02'],['hunt_et_al']
1785,CCCc1ccc(cc1)[OH:10],O,0,0,10.34,['10.34'],['hunt_et_al']
1786,C=CC[OH:4],O,0,0,15.52,['15.52'],['hunt_et_al']
1787,COc1cc(nc(n1)NC(=O)[NH:20]S(=O)(=O)Cc2ccccc2C(=O)OC)OC,O,0,0,5.2,['5.2'],['hunt_et_al']
1788,CC(C)N1C(=O)c2ccccc2[NH:11]S1(=O)=O,O,0,0,3.3,['3.3'],['hunt_et_al']
1789,Cc1ccc(cc1)n2c(cc(n2)C(C)(C)C)NC(=O)Nc3ccc(c4c3cccc4)OCC[NH+:34]5CCOCC5,O,0,0,6.41,['6.41'],['hunt_et_al']
1790,CCC[N@@H+:18]1CCCC[C@H]1C(=O)Nc2c(cccc2C)C,O,0,0,8.07,['8.07'],['hunt_et_al']
1791,Cc1cc(ccc1OCC(=O)[O-])C[N@@H+:26](CC(=O)Nc2ccc(cc2Cl)Cl)C3CCCCC3,O,0,0,6.7,['6.7'],['hunt_et_al']
1792,Cc1cc(ccc1OCC(=O)[OH:29])C[N@@H+](CC(=O)Nc2ccc(cc2Cl)Cl)C3CCCCC3,O,0,0,2.9,['2.9'],['hunt_et_al']
1793,CCCC[N@H+:19]1CCCC[C@@H]1C(=O)Nc2c(cccc2C)C,O,0,0,8.16,['8.16'],['hunt_et_al']
1794,C[NH+:21](C)CCCN1c2ccccc2CCc3c1cccc3,O,0,0,9.45,['9.45'],['hunt_et_al']
1795,COc1ccc(c(c1)[C@H](CNC(=O)C[NH3+:13])O)OC,O,0,0,7.59,['7.59'],['hunt_et_al']
1796,CC[NH+:23](CC)CC#CCOC(=O)[C@](c1ccccc1)(C2CCCCC2)O,O,0,0,7.5,['7.5'],['hunt_et_al']
1797,C[NH+:17](C)C[C@H]1CCCC[C@@]1(c2cccc(c2)OC)O,O,0,0,8.3,['8.3'],['hunt_et_al']
1798,CC(=O)NC[C@H]1CN(C(=O)O1)c2ccc(c(c2)F)[NH+:18]3CCOCC3,O,0,0,6.81,['6.81'],['hunt_et_al']
1799,Cc1[nH+:7]cc(n1CCO)N(=O)=O,O,0,0,2.51,['2.51'],['hunt_et_al']
1800,CCOC(=O)C1=C(NC(=C([C@@H]1c2ccccc2Cl)C(=O)OC)C)COCC[NH3+:22],O,0,0,8.6,['8.6'],['hunt_et_al']
1801,C[C@@H](c1ccc2cc(ccc2c1)OC)C(=O)[OH:16],O,0,0,4.2,['4.2'],['hunt_et_al']
1802,Cc1cc(ccc1OCC(=O)[O-])C[N@H+:26]2Cc3ccccc3[C@@H]2C(=O)Nc4ccc(cc4Cl)Cl,O,0,0,5.6,['5.6'],['hunt_et_al']
1803,Cc1cc(ccc1OCC(=O)[OH:30])C[N@H+]2Cc3ccccc3[C@@H]2C(=O)Nc4ccc(cc4Cl)Cl,O,0,0,3.1,['3.1'],['hunt_et_al']
1804,COc1ccc2c(c1)c(ccn2)[C@H]([C@@H]3C[C@@H]4CC[N@H+:22]3C[C@@H]4C=C)O,O,0,0,8.8,['8.8'],['hunt_et_al']
1805,c1cc(ccc1C#N)C(=O)N2CCC3(CC2)Nc4c(ccc(c4C(=[NH+:22]3)N)F)F,O,0,0,8.15,['8.15'],['hunt_et_al']
1806,c1ccc(cc1)/C(=C/C(=O)[OH:12])/C(F)(F)F,O,0,0,2.41,['2.41'],['hunt_et_al']
1807,CCC(CC)NC(=O)c1c(n(nn1)c2ccccc2)[NH:25]S(=O)(=O)c3ccc(cc3)C,O,0,0,3.3,['3.3'],['hunt_et_al']
1808,CCC(CC)n1c(c(c(n1)C)C(=O)N[C@@H](C)C(C)(C)C)[NH:26]S(=O)(=O)c2ccc(cc2)C,O,0,0,4.6,['4.6'],['hunt_et_al']
1809,Cc1c(c(n(n1)C2CCOCC2)[NH:28]S(=O)(=O)c3ccc(cc3)C4CC4)C(=O)N[C@@H](C)C(C)(C)C,O,0,0,5.0,['5.0'],['hunt_et_al']
1810,c1cc(ccc1c2n[nH:28]nn2)C(=O)N3CCC(CC3)[NH+]4CCC(CC4)Oc5ccc(c(c5)Cl)Cl,O,0,0,3.6,['3.6'],['hunt_et_al']
1811,c1ccc(cc1)S(=O)(=O)[N-]C(=O)N2CCC(CC2)[NH+:25]3CCC(CC3)Oc4ccc(c(c4)Cl)Cl,O,0,0,8.1,['8.1'],['hunt_et_al']
1812,c1ccc(cc1)S(=O)(=O)[NH:26]C(=O)N2CCC(CC2)[NH+]3CCC(CC3)Oc4ccc(c(c4)Cl)Cl,O,0,0,3.3,['3.3'],['hunt_et_al']
1813,CC(C)N1CC[NH+:31](CC1)Cc2cnc(o2)c3cc(cc4c3cn[nH]4)c5cccc6c5cc[nH]6,O,0,0,8.26,['8.26'],['hunt_et_al']
1814,CC(C)[NH+:32]1CCN(CC1)Cc2cnc(o2)c3cc(cc4c3cn[nH]4)c5cccc6c5cc[nH]6,O,0,0,8.26,['8.26'],['hunt_et_al']
1815,C[C@H](CO)Nc1c2ccc(=O)[nH:20]c2nc(n1)SCc3cccc(c3F)F,O,0,0,10.5,['10.5'],['hunt_et_al']
1816,CC1([C@@H](N2[C@H](S1)[C@@H](C2=O)NC(=O)Cc3ccccc3)C(=O)[OH:22])C,O,0,0,3.32,['3.32'],['hunt_et_al']
1817,Cc1[nH]cc[nH+:5]1,O,0,0,7.8,['7.8'],['hunt_et_al']
1818,c1ccc2c(c1)[nH]c([nH+:8]2)N,O,0,0,7.2,['7.2'],['hunt_et_al']
1819,c1cc2cccc3c2c(c1)NC(=[NH+:12]3)N,O,0,0,7.6,['7.6'],['hunt_et_al']
1820,c1cc(c(c2c1[C@@H](C2)C[NH3+:10])O)O,O,0,0,8.5,['8.5'],['hunt_et_al']
1821,c1cc(c(c2c1[C@@H](C2)C[NH3+])O)[OH:11],O,0,0,10.4,['10.4'],['hunt_et_al']
1822,c1cc(c(c2c1[C@@H](C2)C[NH3+])[OH:12])O,O,0,0,10.4,['10.4'],['hunt_et_al']
1823,c1ccc2c(c1)nc(o2)SCc3cccc[nH+:14]3,O,0,0,4.3,['4.3'],['hunt_et_al']
1824,c1ccc2c(c1)C(=[NH+:13][C@@H](N2)c3ccco3)N,O,0,0,9.13,['9.13'],['hunt_et_al']
1825,Cc1c(c([nH+:22][nH]1)C)Cc2c(c3c(=O)n(c(=O)n(c3s2)CC(C)C)C)C(=O)N4C[C@@H](CO4)O,O,0,0,3.4,['3.4'],['hunt_et_al']
1826,C[C@H](CO)Nc1c2c([nH:18]c(=O)s2)nc(n1)SCc3ccccc3,O,0,0,7.0,['7.0'],['hunt_et_al']
1827,C[N@@H+:18]1CCc2cccc-3c2[C@H]1Cc4c3c(c(cc4)O)O,O,0,0,8.92,['8.92'],['hunt_et_al']
1828,c1cnc(c(c1C(=O)NCC23CC4CC(C2)CC(C4)C3)Cl)N5CC[NH2+:23]CC5,O,0,0,8.7,['8.7'],['hunt_et_al']
1829,Cc1cc[nH+:7]c(c1N)N,O,0,0,7.2,['7.2'],['hunt_et_al']
1830,CC[NH+:16](CC)CCNC(=O)c1ccc(cc1)N,O,0,0,9.29,['9.29'],['hunt_et_al']
1831,c1ccc2c(c1)cccc2CC3=[NH+:15]CCN3,O,0,0,10.3,['10.3'],['hunt_et_al']
1832,CC(C)[NH2+:17]C[C@H](COc1ccc(cc1)CCC(=O)OC)O,O,0,0,9.5,['9.5'],['hunt_et_al']
1833,C[NH+:23]1CCN(CC1)CC(=O)N2c3ccccc3C(=O)Nc4c2nccc4,O,0,0,7.88,['7.88'],['hunt_et_al']
1834,CN1CC[NH+:24](CC1)CC(=O)N2c3ccccc3C(=O)Nc4c2nccc4,O,0,0,7.88,['7.88'],['hunt_et_al']
1835,C[NH+:23]1CCN(CC1)CC(=O)N2c3ccccc3C(=O)[N-]c4c2nccc4,O,0,0,10.71,['10.71'],['hunt_et_al']
1836,CN1CC[NH+:24](CC1)CC(=O)N2c3ccccc3C(=O)[N-]c4c2nccc4,O,0,0,10.71,['10.71'],['hunt_et_al']
1837,C(C(=O)N[OH:5])Cl,O,0,0,8.4,['8.4'],['hunt_et_al']
1838,C[C@H](CCC(=O)[OH:26])[C@H]1CC[C@@H]2[C@@]1([C@H](C[C@H]3[C@H]2[C@@H](C[C@H]4[C@@]3(CC[C@H](C4)O)C)O)O)C,O,0,0,4.98,['4.98'],['hunt_et_al']
1839,c1c2c(c(c(c1F)[N@@]3CC[C@@H](C3)[NH3+:20])Cl)n(cc(c2=O)C(=O)[O-])C4CC4,O,0,0,9.1,['9.1'],['hunt_et_al']
1840,c1c2c(c(c(c1F)[N@@]3CC[C@@H](C3)[NH3+])Cl)n(cc(c2=O)C(=O)[OH:23])C4CC4,O,0,0,5.77,['5.77'],['hunt_et_al']
1841,c1cc(nc(c1Cl)C(=O)[OH:9])Cl,O,0,0,2.32,['2.32'],['hunt_et_al']
1842,C/C(=N\NC(=O)Nc1cc(cc(c1)F)F)/c2c(cccn2)C(=O)[OH:22],O,0,0,3.18,['3.18'],['hunt_et_al']
1843,CC[C@H](C)c1cc(cc(c1[OH:17])N(=O)=O)N(=O)=O,O,0,0,4.62,['4.62'],['hunt_et_al']
1844,CCOc1nc(nc(n1)NC(=O)[NH:21]S(=O)(=O)c2ccccc2C(=O)OC)NC,O,0,0,4.2,['4.2'],['hunt_et_al']
1845,COc1cc(nc(n1)NC(=O)[NH:20]S(=O)(=O)c2c(ccc(n2)C(F)(F)F)C(=O)OC)OC,O,0,0,4.9,['4.9'],['hunt_et_al']
1846,C/C=C\c1ccc(c(c1)OC)[OH:11],O,0,0,9.88,['9.88'],['hunt_et_al']
1847,C(C[SH:4])O,O,0,0,9.72,['9.72'],['hunt_et_al']
1848,COCC[OH:4],O,0,0,14.82,['14.82'],['hunt_et_al']
1849,CCCC[NH2+:6]C,O,0,0,10.9,['10.9'],['hunt_et_al']
1850,CC(=O)NCC[SH:7],O,0,0,9.92,['9.92'],['hunt_et_al']
1851,CC(=O)N[C@@H](C[SH:10])C(=O)[O-],O,0,0,9.52,['9.52'],['hunt_et_al']
1852,CC(C)(C)C[OH:6],O,0,0,16.04,['16.04'],['hunt_et_al']
1853,CC(C)c1ccc(cc1)[OH:10],O,0,0,10.24,['10.24'],['hunt_et_al']
1854,c1ccc(cc1)CC(=O)N[OH:11],O,0,0,9.19,['9.19'],['hunt_et_al']
1855,c1ccc(cc1)CC[OH:9],O,0,0,15.48,['15.48'],['hunt_et_al']
1856,c1cc(c(c2c1cc(cn2)Cl)C(=O)[OH:13])Cl,O,0,0,4.34,['4.34'],['hunt_et_al']
1857,Cc1cc2ccc(c(c2nc1)C(=O)[OH:14])Cl,O,0,0,3.96,['3.96'],['hunt_et_al']
1858,C[C@@H]1CN(C[C@@H]([NH2+:20]1)C)c2c(c(c3c(c2F)n(cc(c3=O)C(=O)[O-])C4CC4)N)F,O,0,0,8.94,['8.94'],['hunt_et_al']
1859,C[C@@H]1CN(C[C@@H]([NH2+]1)C)c2c(c(c3c(c2F)n(cc(c3=O)C(=O)[OH:26])C4CC4)N)F,O,0,0,6.31,['6.31'],['hunt_et_al']
1860,c1c(cc(c(c1Cl)[OH:7])Cl)Cl,O,0,0,6.23,['6.23'],['hunt_et_al']
1861,c1cc(c(cc1Cl)[OH:7])Cl,O,0,0,7.51,['7.51'],['hunt_et_al']
1862,c1c(cc(c(c1Cl)[OH:7])Cl)Br,O,0,0,6.21,['6.21'],['hunt_et_al']
1863,c1c(cc(cc1Cl)Cl)C(=O)[OH:9],O,0,0,3.54,['3.54'],['hunt_et_al']
1864,Cc1ccc(c(c1)[OH:11])N(=O)=O,O,0,0,7.25,['7.25'],['hunt_et_al']
1865,C(=O)(C(=O)O)[OH:5],O,0,0,1.27,['1.27'],['hunt_et_al']
1866,C(=O)(C(=O)[O-])[OH:5],O,0,0,4.29,['4.29'],['hunt_et_al']
1867,Cc1cc(cc(c1Cl)C)[OH:9],O,0,0,9.7,['9.7'],['hunt_et_al']
1868,C1CC(CCC1C(=O)[O-])[NH3+:8],O,0,0,10.5,['10.5'],['hunt_et_al']
1869,C1CC(CCC1C(=O)[OH:10])[NH3+],O,0,0,4.3,['4.3'],['hunt_et_al']
1870,CC(C)C(=O)[OH:6],O,0,0,4.84,['4.84'],['hunt_et_al']
1871,c1ccc(cc1)CCCCC(=O)[OH:13],O,0,0,4.56,['4.56'],['hunt_et_al']
1872,C[N+](C)(C)c1cccc(c1)CC(=O)[OH:14],O,0,0,3.66,['3.66'],['hunt_et_al']
1873,COc1cc2ccccc2cc1C(=O)[OH:14],O,0,0,3.8,['3.8'],['hunt_et_al']
1874,C[C@@](CC(=O)OC)(c1ccccc1)C(=O)[OH:15],O,0,0,4.15,['4.15'],['hunt_et_al']
1875,CCCCc1ccc(cc1)[C@H](C(=O)[OH:14])O,O,0,0,3.58,['3.58'],['hunt_et_al']
1876,CCCc1ccc(c(c1)CCC)[OH:13],O,0,0,10.91,['10.91'],['hunt_et_al']
1877,C[N+](C)(C)c1cccc(c1)CCC(=O)[OH:15],O,0,0,4.17,['4.17'],['hunt_et_al']
1878,C[N+](C)(C)c1ccc(cc1)CCC(=O)[OH:15],O,0,0,4.22,['4.22'],['hunt_et_al']
1879,C[C@@](Cc1ccc(cc1)N(=O)=O)(CC(=O)[OH:19])C(=O)OC,O,0,0,4.45,['4.45'],['hunt_et_al']
1880,c1ccc2c(c1)ccc(c2[OH:17])/N=N/c3nccs3,O,0,0,9.1,['9.1'],['hunt_et_al']
1881,CC(C)(C)c1ccc(c(c1)C(C)(C)C)[OH:15],O,0,0,11.72,['11.72'],['hunt_et_al']