,Solute SMILES,Solvent SMILES,Solute CAS,Solute IUPAC,pKa (avg),pKa (all),Source
236,CN(C)c1ccc(cc1)S(=O)(=O)[NH:28]C(=O)N2CCC(CC2)[NH+]3CCC(CC3)Oc4ccc(c(c4)Cl)Cl,O,0,0,6.1,['6.1'],['hunt_et_al']
237,Cc1ccccc1S(=O)(=O)[NH:27]C(=O)N2CCC(CC2)N3CCC(CC3)Oc4ccc(c(c4)Cl)Cl,O,0,0,3.4,['3.4'],['hunt_et_al']
238,Cc1ccccc1S(=O)(=O)[NH:27]C(=O)N2CCC(CC2)[NH+]3CCC(CC3)Oc4ccc(c(c4)Cl)Cl,O,0,0,3.4,['3.4'],['hunt_et_al']
239,CN(C)c1ccccc1S(=O)(=O)[NH:28]C(=O)N2CCC(CC2)N3CCC(CC3)Oc4ccc(c(c4)Cl)Cl,O,0,0,6.6,['6.6'],['hunt_et_al']
240,CN(C)c1ccccc1S(=O)(=O)NC(=O)N2CCC(CC2)[NH+:27]3CCC(CC3)Oc4ccc(c(c4)Cl)Cl,O,0,0,8.6,['8.6'],['hunt_et_al']
241,CN(C)c1ccccc1S(=O)(=O)[N-]C(=O)N2CCC(CC2)[NH+:27]3CCC(CC3)Oc4ccc(c(c4)Cl)Cl,O,0,0,8.6,['8.6'],['hunt_et_al']
242,CN(C)c1ccccc1S(=O)(=O)[NH:28]C(=O)N2CCC(CC2)[NH+]3CCC(CC3)Oc4ccc(c(c4)Cl)Cl,O,0,0,6.6,['6.6'],['hunt_et_al']
243,Cc1ccc(cc1)S(=O)(=O)[NH:28]C(=O)N2CCC(CC2)N3CCC(CC3)Oc4ccc(c(c4Cl)C)Cl,O,0,0,3.2,['3.2'],['hunt_et_al']
244,Cc1ccc(cc1)S(=O)(=O)NC(=O)N2CCC(CC2)[NH+:27]3CCC(CC3)Oc4ccc(c(c4Cl)C)Cl,O,0,0,8.7,['8.7'],['hunt_et_al']
245,Cc1ccc(cc1)S(=O)(=O)[N-]C(=O)N2CCC(CC2)[NH+:27]3CCC(CC3)Oc4ccc(c(c4Cl)C)Cl,O,0,0,8.7,['8.7'],['hunt_et_al']
246,Cc1ccc(cc1)S(=O)(=O)[NH:28]C(=O)N2CCC(CC2)[NH+]3CCC(CC3)Oc4ccc(c(c4Cl)C)Cl,O,0,0,3.2,['3.2'],['hunt_et_al']
247,c1cc(c(c(c1)F)Cl)NC(=O)Nc2ccc(c(c2[OH:25])S(=O)(=O)N3CCNCC3)Cl,O,0,0,5.9,['5.9'],['hunt_et_al']
248,c1cc(c(c(c1)F)Cl)NC(=O)Nc2ccc(c(c2O)S(=O)(=O)N3CC[NH2+:18]CC3)Cl,O,0,0,8.5,['8.5'],['hunt_et_al']
249,c1cc(c(c(c1)F)Cl)NC(=O)Nc2ccc(c(c2[O-])S(=O)(=O)N3CC[NH2+:18]CC3)Cl,O,0,0,8.5,['8.5'],['hunt_et_al']
250,c1cc(c(c(c1)F)Cl)NC(=O)Nc2ccc(c(c2[OH:25])S(=O)(=O)N3CC[NH2+]CC3)Cl,O,0,0,5.9,['5.9'],['hunt_et_al']
251,Cc1cc(ccc1OC)[C@@]2([NH+:26]=C(C(=N2)C)N)c3cccc(c3)c4cncnc4,O,0,0,5.83,['5.83'],['hunt_et_al']
252,CC1=N[C@]([NH+:21]=C1N)(c2cccc(c2)c3cc(cnc3)Cl)C4CC4,O,0,0,6.04,['6.04'],['hunt_et_al']
253,CCOC(=O)C1=C([NH2+:23]C(=C([C@H]1c2cccc3c2oc(cc3=O)C)C(=O)C)C)C,O,0,0,2.22,['2.22'],['hunt_et_al']
254,CCOc1c2c(c(c[nH+:23]1)C)NC(=C([C@H]2c3ccc(cc3OC)C#N)C(=O)N)C,O,0,0,4.68,['4.68'],['hunt_et_al']
255,c1cc(c(cc1OC2CCN(CC2)C[C@@H](CNC(=O)c3c[nH:21]nc3C(F)(F)F)O)Cl)Cl,O,0,0,7.6,['7.6'],['hunt_et_al']
256,c1cc(c(cc1OC2CC[NH+:22](CC2)C[C@@H](CNC(=O)c3c[nH]nc3C(F)(F)F)O)Cl)Cl,O,0,0,9.1,['9.1'],['hunt_et_al']
257,c1cc(c(cc1OC2CC[NH+](CC2)C[C@@H](CNC(=O)c3c[nH:21]nc3C(F)(F)F)O)Cl)Cl,O,0,0,7.6,['7.6'],['hunt_et_al']
258,Cn1cc(c(cc1=O)C(F)(F)F)C(=O)NC[C@H](C[NH+:24]2CCC(CC2)Oc3ccc(c(c3)Cl)Cl)O,O,0,0,7.8,['7.8'],['hunt_et_al']
259,c1ccc2c(c1)c(c[nH:25]c2=O)C(=O)NC[C@H](CN3CCC(CC3)Oc4ccc(c(c4)Cl)Cl)O,O,0,0,10.9,['10.9'],['hunt_et_al']
260,c1ccc2c(c1)c(c[nH]c2=O)C(=O)NC[C@H](C[NH+:26]3CCC(CC3)Oc4ccc(c(c4)Cl)Cl)O,O,0,0,7.7,['7.7'],['hunt_et_al']
261,c1ccc2c(c1)c(c[nH:25]c2=O)C(=O)NC[C@H](C[NH+]3CCC(CC3)Oc4ccc(c(c4)Cl)Cl)O,O,0,0,10.9,['10.9'],['hunt_et_al']
262,Cc1c(c(no1)c2c(cccc2Cl)F)C(=O)N[C@H]3[C@@H]4N(C3=O)[C@H](C(S4)(C)C)C(=O)[OH:27],O,0,0,2.46,['2.46'],['hunt_et_al']
263,CC(=O)O[C@@H]1[C@@H](Sc2ccccc2N(C1=O)CC[NH+:24](C)C)c3ccc(cc3)OC,O,0,0,8.08,['8.08'],['hunt_et_al']
264,c1cc(c(cc1Cl)c2cn[nH]c2N)Oc3cc(c(cc3Cl)S(=O)(=O)[NH:23]c4cscn4)F,O,0,0,6.2,['6.2'],['hunt_et_al']
265,c1cc(c(cc1CN2C[C@H]3C[NH2+:26]C[C@@H](C2)O3)C(=O)NCC45CC6CC(C4)CC(C6)C5)Cl,O,0,0,10.0,['10.0'],['hunt_et_al']
266,c1cc(c(cc1C[NH+:27]2C[C@H]3CNC[C@@H](C2)O3)C(=O)NCC45CC6CC(C4)CC(C6)C5)Cl,O,0,0,10.0,['10.0'],['hunt_et_al']
267,c1cc(c(cc1CN2CC[NH2+:24]CC2)C(=O)NCC34CC5CC(C3)CC(C5)C4)Cl,O,0,0,8.85,['8.85'],['hunt_et_al']
268,c1cc(c(cc1C[NH+:25]2CCNCC2)C(=O)NCC34CC5CC(C3)CC(C5)C4)Cl,O,0,0,8.85,['8.85'],['hunt_et_al']
269,c1ccc(c(c1)NC(=O)Nc2ccc(cc2[OH:20])N(=O)=O)Br,O,0,0,7.7,['7.7'],['hunt_et_al']
270,CC(C)[NH2+:16]C[C@H](COc1ccc(cc1)CC(=O)N)O,O,0,0,9.6,['9.6'],['hunt_et_al']
271,CC(C)c1nc2ccc(cc2c(=O)n1C[C@H]3CCC[N@H+:29](C3)C(C)C)c4ccc(cc4)F,O,0,0,9.91,['9.91'],['hunt_et_al']
272,Cc1nc2ccc(cc2c(=O)n1C[C@H]3CCC[N@H+:27](C3)C(C)C)c4ccc(cc4)Cl,O,0,0,10.09,['10.09'],['hunt_et_al']
273,C[C@H](CO)Nc1c2c([nH:20]c(=O)cn2)nc(n1)SCc3cccc(c3F)F,O,0,0,7.5,['7.5'],['hunt_et_al']
274,CC[N@@H+:16]1CCC[C@H]1CNC(=O)c2cc(ccc2OC)S(=O)(=O)N,O,0,0,9.0,['9.0'],['hunt_et_al']
275,c1c2c(cc(c1[OH:12])O)C[C@@H](CC2)N,O,0,0,9.1,['9.1'],['hunt_et_al']
276,c1c2c(cc(c1O)[OH:13])C[C@@H](CC2)N,O,0,0,9.1,['9.1'],['hunt_et_al']
277,c1c2c(cc(c1O)O)C[C@@H](CC2)[NH3+:11],O,0,0,10.5,['10.5'],['hunt_et_al']
278,c1c2c(cc(c1[OH:12])O)C[C@@H](CC2)[NH3+],O,0,0,9.1,['9.1'],['hunt_et_al']
279,c1c2c(cc(c1O)[OH:13])C[C@@H](CC2)[NH3+],O,0,0,9.1,['9.1'],['hunt_et_al']
280,C[C@H](CO)Nc1c2c([nH:22]c(=O)c(n2)C(=O)OC)nc(n1)SCc3cccc(c3F)F,O,0,0,6.6,['6.6'],['hunt_et_al']
281,c1ccc(cc1)C[NH+:18]2CCN(CC2)S(=O)(=O)c3ccccc3,O,0,0,5.6,['5.6'],['hunt_et_al']
282,CCCN(CCC)[C@@H]1CCc2c(cccc2[OH:18])C1,O,0,0,9.25,['9.25'],['hunt_et_al']
283,CCC[NH+:17](CCC)[C@@H]1CCc2c(cccc2O)C1,O,0,0,10.85,['10.85'],['hunt_et_al']
284,CCC[NH+](CCC)[C@@H]1CCc2c(cccc2[OH:18])C1,O,0,0,9.25,['9.25'],['hunt_et_al']
285,C[NH+:27]1CCN(CC1)c2ccc(cc2)c3cc(c4ccccc4n3)NCCN(C)C,O,0,0,8.94,['8.94'],['hunt_et_al']
286,CN1CCN(CC1)c2ccc(cc2)c3cc(c4ccccc4n3)NCC[NH+:29](C)C,O,0,0,8.94,['8.94'],['hunt_et_al']
287,COc1ccc(cc1)CC[NH+:31]2CCC(CC2)Nc3nc4ccccc4n3Cc5ccc(cc5)F,O,0,0,9.62,['9.62'],['hunt_et_al']
288,c1ccc2c(c1)c(=O)cc([nH]2)C(=O)[OH:14],O,0,0,2.5,['2.5'],['hunt_et_al']
289,Cc1c(nc[nH]1)CSCC/[NH+:13]=C(/NC)\NC#N,O,0,0,6.97,['6.97'],['hunt_et_al']
290,Cc1cc(cc(c1CC2=[NH+:17]CCN2)C)C(C)(C)C,O,0,0,10.6,['10.6'],['hunt_et_al']
291,CC1=NN([C@@H](S1)C(=O)[OH:12])C(=O)CCS,O,0,0,2.4,['2.4'],['hunt_et_al']
292,c1cc2c(c(c1)F)C(=[NH+:15][C@@H](N2)c3ccc(cc3)F)N,O,0,0,9.0,['9.0'],['hunt_et_al']
293,Cc1cn(c(=O)[nH:13]c1=O)Cc2ccccc2,O,0,0,9.4,['9.4'],['hunt_et_al']
294,CCOC(=O)N1CCC2(CC1)Nc3cccc(c3C(=[NH+:16]2)N)Cl,O,0,0,9.0,['9.0'],['hunt_et_al']
295,c1cc2c(c(c1)F)C(=[NH+:22]C3(N2)CCN(CC3)C(=O)c4ccc(cc4)C#N)N,O,0,0,9.0,['9.0'],['hunt_et_al']
296,CCCN(CCC)CCc1ccc(c(c1)NC(=O)C)[OH:20],O,0,0,8.75,['8.75'],['hunt_et_al']
297,CCC[NH+:18](CCC)CCc1ccc(c(c1)NC(=O)C)O,O,0,0,10.8,['10.8'],['hunt_et_al']
298,CCC[NH+](CCC)CCc1ccc(c(c1)NC(=O)C)[OH:20],O,0,0,8.75,['8.75'],['hunt_et_al']
299,CC1(c2ccc(cc2C(=O)N(C1=O)CCc3ccc(cc3)S(=O)(=O)[NH:30]C(=O)NC4CCCCC4)OC)C,O,0,0,5.0,['5.0'],['hunt_et_al']
300,Cc1[nH+:20]c(c(n1Cc2c(c3c(=O)n(c(=O)n(c3s2)CC(C)C)C)C(=O)N(C)OC)Cl)Cl,O,0,0,2.7,['2.7'],['hunt_et_al']
301,c1cc2cc[nH]c2[nH+:8]c1,O,0,0,4.5,['4.5'],['hunt_et_al']
302,c1cc(c(cc1OC2CC[NH2+:24]CC2)C(=O)NCC34CC5CC(C3)CC(C5)C4)Cl,O,0,0,9.0,['9.0'],['hunt_et_al']
303,CCC1(C(=O)[NH:13]C(=O)NC1=O)c2ccccc2,O,0,0,7.5,['7.5'],['hunt_et_al']
304,C[C@H](CO)Nc1c2cc(c(=O)[nH:22]c2nc(n1)SCc3cccc(c3F)F)C#N,O,0,0,7.9,['7.9'],['hunt_et_al']
305,c1ccc(cc1)/C=C/c2n[nH:13]nn2,O,0,0,4.5,['4.5'],['hunt_et_al']
306,C[NH2+:18]CC[C@@H](c1ccccc1)Oc2ccc(cc2)C(F)(F)F,O,0,0,9.9,['9.9'],['hunt_et_al']
307,C[C@@]12CC[C@H]3c4ccc(cc4CC[C@@H]3[C@@H]1CC[C@@H]2O)[OH:19],O,0,0,10.0,['10.0'],['hunt_et_al']
308,CC(C)[NH2+:19]C[C@H](COc1ccc(cc1)CCOCC2CC2)O,O,0,0,9.53,['9.53'],['hunt_et_al']
309,C[C@H](CO)Nc1c2c(nc(n1)SCc3cccc(c3F)F)nc(s2)[NH:21]S(=O)(=O)C,O,0,0,4.7,['4.7'],['hunt_et_al']
310,c1cnc(nc1)[NH:14]S(=O)(=O)c2ccc(cc2)N,O,0,0,6.29,['6.29'],['hunt_et_al']
311,CS(=O)(=O)[NH:23]C(=O)CCCc1c2cc(ccc2[nH]c1c3ccc(cc3)F)C#N,O,0,0,5.2,['5.2'],['hunt_et_al']
312,c1ccc(cc1)[C@H]2c3c(c4ccccc4[nH]3)C[C@H]([NH2+:20]2)C(=O)O,O,0,0,8.0,['8.0'],['hunt_et_al']
313,c1ccc(cc1)[C@H]2c3c(c4ccccc4[nH]3)C[C@H]([NH2+:20]2)C(=O)[O-],O,0,0,8.0,['8.0'],['hunt_et_al']
314,c1cc(ncc1C(=O)N2CCC3(CC2)Nc4c(ccc(c4C(=[NH+:22]3)N)F)F)C#N,O,0,0,8.4,['8.4'],['hunt_et_al']
315,Cc1c(sc(=[NH2+:6])[nH]1)C,O,0,0,6.3,['6.3'],['hunt_et_al']
316,CC(=O)[NH:10]S(=O)(=O)c1ccc(cc1)N,O,0,0,5.25,['5.25'],['hunt_et_al']
317,Cc1[nH+:19]ccn1C[C@H]2CCc3c(c4ccccc4n3C)C2=O,O,0,0,7.73,['7.73'],['hunt_et_al']
318,COc1ccc(cc1C(=O)NCCc2ccc(cc2)S(=O)(=O)[NH:26]C(=O)NC3CCCCC3)Cl,O,0,0,3.76,['3.76'],['hunt_et_al']
319,C[N@H+:19]1CC[C@]23c4c5ccc(c4O[C@H]2[C@H](C=C[C@H]3[C@H]1C5)O)OC,O,0,0,8.2,['8.2'],['hunt_et_al']
320,c1cnc(nc1)N2CC[NH+:26](CC2)CCCCN3C(=O)CC4(CCCC4)CC3=O,O,0,0,7.61,['7.61'],['hunt_et_al']
321,CC(C)(C)[NH2+:17]C[C@@H](COc1c(nsn1)N2CCOCC2)O,O,0,0,8.8,['8.8'],['hunt_et_al']
322,CC(C)[NH2+:16]C[C@H](COc1cccc2c1cc[nH]2)O,O,0,0,9.62,['9.62'],['hunt_et_al']
323,COc1cc[nH+:15]c(c1)CSc2[nH]c3ccccc3n2,O,0,0,5.3,['5.3'],['hunt_et_al']
324,c1cc(ccc1CCCC(=O)[OH:17])N(CCCl)CCCl,O,0,0,5.8,['5.8'],['hunt_et_al']
325,C[C@@H](c1ccc(cc1)CC(C)C)C(=O)[OH:15],O,0,0,5.2,['5.2'],['hunt_et_al']
326,CN1C(=C(c2ccccc2S1(=O)=O)[OH:22])C(=O)Nc3ccccn3,O,0,0,6.3,['6.3'],['hunt_et_al']
327,C[NH+:20]1CCC(=C2c3ccccc3CC(=O)c4c2ccs4)CC1,O,0,0,9.0,['9.0'],['hunt_et_al']
328,c1cc(ccc1C(=O)CCC[NH+:22]2CCC(CC2)(c3ccc(cc3)Cl)O)F,O,0,0,8.75,['8.75'],['hunt_et_al']
329,c1cc(c(cc1OCCC[NH2+:26]CCCO)C(=O)NCC23CC4CC(C2)CC(C4)C3)Cl,O,0,0,9.5,['9.5'],['hunt_et_al']
330,Cc1ccc(cc1NC(=O)CC23CC4CC(C2)CC(C4)C3)C(=O)N5C[C@H]6C[NH2+:27]C[C@@H](C5)O6,O,0,0,7.18,['7.18'],['hunt_et_al']
331,c1cc(c(cc1n2c(=O)[nH:23]c(=O)cn2)C(=O)NCC34CC5CC(C3)CC(C5)C4)Cl,O,0,0,6.2,['6.2'],['hunt_et_al']
332,Cc1cccc(c1OC[C@H](C)[NH3+:12])C,O,0,0,9.13,['9.13'],['hunt_et_al']
333,c1ccc(c(c1)CCNC(=O)c2cc(ccc2Cl)n3c(=O)[nH:20]c(=O)cn3)Cl,O,0,0,6.1,['6.1'],['hunt_et_al']
334,c1c(c(cnc1OC2CC[NH2+:24]CC2)Cl)C(=O)NCC34CC5CC(C3)CC(C5)C4,O,0,0,9.1,['9.1'],['hunt_et_al']
335,C[C@@H](c1ccc(c(c1)F)c2ccccc2)C(=O)[OH:17],O,0,0,4.2,['4.2'],['hunt_et_al']
336,c1ccc(cc1)c2c(c(nc(n2)N)[OH:16])C#N,O,0,0,6.52,['6.52'],['hunt_et_al']
337,c1c(c(cnc1N2CC[NH2+:23]CC2)Cl)C(=O)NCC34CC5CC(C3)CC(C5)C4,O,0,0,8.5,['8.5'],['hunt_et_al']
338,CCOC(=O)[C@H](CCc1ccccc1)N[C@@H](C)C(=O)N2CCC[C@H]2C(=O)[OH:26],O,0,0,3.1,['3.1'],['hunt_et_al']
339,CCOC(=O)[C@H](CCc1ccccc1)[NH2+:22][C@@H](C)C(=O)N2CCC[C@H]2C(=O)O,O,0,0,6.4,['6.4'],['hunt_et_al']
340,CCOC(=O)[C@H](CCc1ccccc1)[NH2+:22][C@@H](C)C(=O)N2CCC[C@H]2C(=O)[O-],O,0,0,6.4,['6.4'],['hunt_et_al']
341,CCOC(=O)[C@H](CCc1ccccc1)[NH2+][C@@H](C)C(=O)N2CCC[C@H]2C(=O)[OH:26],O,0,0,3.1,['3.1'],['hunt_et_al']
342,CCCN(CCC)CCc1ccc(c2c1CC(=O)N2)[OH:20],O,0,0,8.35,['8.35'],['hunt_et_al']
343,CCC[NH+:18](CCC)CCc1ccc(c2c1CC(=O)N2)O,O,0,0,10.2,['10.2'],['hunt_et_al']
344,CCC[NH+](CCC)CCc1ccc(c2c1CC(=O)N2)[OH:20],O,0,0,8.35,['8.35'],['hunt_et_al']
345,C[NH+:21](C)CCC=C1c2ccccc2CCc3c1cccc3,O,0,0,9.4,['9.4'],['hunt_et_al']
346,CCC[NH2+:22]C[C@H](COc1ccccc1C(=O)CCc2ccccc2)O,O,0,0,9.27,['9.27'],['hunt_et_al']
347,CCCC(=O)Nc1ccc(c(c1)C(=O)C)OC[C@@H](C[NH2+:20]C(C)C)O,O,0,0,9.45,['9.45'],['hunt_et_al']
348,CC(C)[NH2+:19]C[C@H](COc1ccc(cc1)COCCOC(C)C)O,O,0,0,9.87,['9.87'],['hunt_et_al']
349,CC(C)[C@@](CCC[N@@H+:29](C)CCc1ccc(c(c1)OC)OC)(C#N)c2ccc(c(c2)OC)OC,O,0,0,8.6,['8.6'],['hunt_et_al']
350,C[N@H+:18]1CC[C@]23c4c5ccc(c4O[C@H]2[C@H](C=C[C@H]3[C@H]1C5)O)O,O,0,0,8.18,['8.18'],['hunt_et_al']
351,CC(C)(C)[NH2+:14]C[C@@H](c1ccc(c(c1)CO)O)O,O,0,0,9.3,['9.3'],['hunt_et_al']
352,CCCCNC(=O)[NH:14]S(=O)(=O)c1ccc(cc1)C,O,0,0,5.3,['5.3'],['hunt_et_al']
353,CC(C)(c1ccccc1CC[C@H](c2cccc(c2)/C=C/c3ccc4ccc(cc4[nH+:36]3)Cl)SCC5(CC5)CC(=O)O)O,O,0,0,5.6,['5.6'],['hunt_et_al']
354,CC(C)(c1ccccc1CC[C@H](c2cccc(c2)/C=C/c3ccc4ccc(cc4[nH+:36]3)Cl)SCC5(CC5)CC(=O)[O-])O,O,0,0,5.6,['5.6'],['hunt_et_al']
355,CC[NH+:16](CC)CC(=O)Nc1c(cccc1C)C,O,0,0,7.94,['7.94'],['hunt_et_al']
356,C[C@@]12CC3C[C@@](C1)(CC(C3)(C2)[NH3+:13])C,O,0,0,10.66,['10.66'],['hunt_et_al']
357,Cc1ccc(cc1)S(=O)(=O)[NH:17]C(=O)NN2CCCCCC2,O,0,0,5.8,['5.8'],['hunt_et_al']
358,CN(C)C(=O)C(CC[NH+:30]1CCC(CC1)(c2ccc(cc2)Cl)O)(c3ccccc3)c4ccccc4,O,0,0,9.14,['9.14'],['hunt_et_al']
359,Cc1c(c(=O)n2c(n1)CCCC2)CC[NH+:27]3CCC(CC3)c4c5ccc(cc5on4)F,O,0,0,8.49,['8.49'],['hunt_et_al']
360,CC[NH+:17](CC)CCNC(=O)c1cc(c(cc1OC)N)Cl,O,0,0,9.51,['9.51'],['hunt_et_al']
361,C[C@H](C(=O)c1cccc(c1)Cl)[NH2+:14]C(C)(C)C,O,0,0,8.4,['8.4'],['hunt_et_al']
362,CC(C)(c1ccc(cc1)[C@H](CCCN2CCC(CC2)C(c3ccccc3)(c4ccccc4)O)O)C(=O)[OH:35],O,0,0,2.26,['2.26'],['hunt_et_al']
363,CC(C)(c1ccc(cc1)[C@H](CCC[NH+:33]2CCC(CC2)C(c3ccccc3)(c4ccccc4)O)O)C(=O)O,O,0,0,7.53,['7.53'],['hunt_et_al']
364,CC(C)(c1ccc(cc1)[C@H](CCC[NH+:33]2CCC(CC2)C(c3ccccc3)(c4ccccc4)O)O)C(=O)[O-],O,0,0,7.53,['7.53'],['hunt_et_al']
365,CC(C)(c1ccc(cc1)[C@H](CCC[NH+]2CCC(CC2)C(c3ccccc3)(c4ccccc4)O)O)C(=O)[OH:35],O,0,0,2.26,['2.26'],['hunt_et_al']
366,CCN(CC)CCNC(=O)c1ccc(cc1)[NH:15]S(=O)(=O)C,O,0,0,7.52,['7.52'],['hunt_et_al']
367,CC[NH+:17](CC)CCNC(=O)c1ccc(cc1)NS(=O)(=O)C,O,0,0,9.35,['9.35'],['hunt_et_al']
368,CC[NH+:17](CC)CCNC(=O)c1ccc(cc1)[N-]S(=O)(=O)C,O,0,0,9.35,['9.35'],['hunt_et_al']
369,CC[NH+](CC)CCNC(=O)c1ccc(cc1)[NH:15]S(=O)(=O)C,O,0,0,7.52,['7.52'],['hunt_et_al']
370,Cn1c2ccccc2nc1[S@@](=O)Cc3cccc[nH+:15]3,O,0,0,2.6,['2.6'],['hunt_et_al']
371,c1ccc2c(c1)[nH:16]c(n2)[S@@](=O)Cc3ccccn3,O,0,0,8.8,['8.8'],['hunt_et_al']
372,c1ccc2c(c1)[nH]c(n2)[S@@](=O)Cc3cccc[nH+:14]3,O,0,0,3.1,['3.1'],['hunt_et_al']
373,CCOC(=O)c1ccccc1S(=O)(=O)[NH:19]C(=O)Nc2nc(cc(n2)Cl)OC,O,0,0,4.2,['4.2'],['hunt_et_al']
374,c1cc(c(cc1/C=C/C(=O)O[C@@H]2C[C@@](C[C@H]([C@H]2O)O)(C(=O)[OH:21])O)O)O,O,0,0,3.33,['3.33'],['hunt_et_al']
375,Cc1nc(nc(n1)OC)NC(=O)[NH:17]S(=O)(=O)c2ccccc2Cl,O,0,0,3.4,['3.4'],['hunt_et_al']
376,COCCOc1ccccc1S(=O)(=O)[NH:20]C(=O)Nc2nc(nc(n2)OC)OC,O,0,0,4.72,['4.72'],['hunt_et_al']
377,CCn1c2cc3c(cc2c(=O)c(n1)C(=O)[OH:19])OCO3,O,0,0,4.36,['4.36'],['hunt_et_al']
378,c1c2c(cc(c1F)N3CCNCC3)n(cc(c2=O)C(=O)[OH:23])C4CC4,O,0,0,6.13,['6.13'],['hunt_et_al']
379,c1c2c(cc(c1F)N3CC[NH2+:18]CC3)n(cc(c2=O)C(=O)O)C4CC4,O,0,0,8.57,['8.57'],['hunt_et_al']
380,c1c2c(cc(c1F)N3CC[NH2+:18]CC3)n(cc(c2=O)C(=O)[O-])C4CC4,O,0,0,8.57,['8.57'],['hunt_et_al']
381,c1c2c(cc(c1F)N3CC[NH2+]CC3)n(cc(c2=O)C(=O)[OH:23])C4CC4,O,0,0,6.13,['6.13'],['hunt_et_al']
382,CCOc1nc(cc2n1nc(n2)S(=O)(=O)[NH:20]c3c(cccc3Cl)C(=O)OC)F,O,0,0,4.81,['4.81'],['hunt_et_al']
383,C/C=C/C[OH:5],O,0,0,15.8,['15.8'],['hunt_et_al']
384,c1cc(c(cc1Cl)Cl)NC(=O)C2(CC2)C(=O)[OH:15],O,0,0,3.5,['3.5'],['hunt_et_al']
385,C([C@@H](C(=O)O)N)[SH:7],O,0,0,8.4,['8.4'],['hunt_et_al']
386,C([C@@H](C(=O)[O-])[NH3+])[SH:7],O,0,0,8.4,['8.4'],['hunt_et_al']
387,CN1CCN(CC1)c2cc3c(cc2F)c(=O)c(cn3c4ccc(cc4)F)C(=O)[OH:27],O,0,0,5.81,['5.81'],['hunt_et_al']
388,C[NH+:24]1CCN(CC1)c2cc3c(cc2F)c(=O)c(cn3c4ccc(cc4)F)C(=O)O,O,0,0,7.39,['7.39'],['hunt_et_al']
389,C[NH+:24]1CCN(CC1)c2cc3c(cc2F)c(=O)c(cn3c4ccc(cc4)F)C(=O)[O-],O,0,0,7.39,['7.39'],['hunt_et_al']
390,C[NH+]1CCN(CC1)c2cc3c(cc2F)c(=O)c(cn3c4ccc(cc4)F)C(=O)[OH:27],O,0,0,5.81,['5.81'],['hunt_et_al']
391,C(C[SH:8])[C@@H](C(=O)O)N,O,0,0,8.7,['8.7'],['hunt_et_al']
392,C(C[SH:8])[C@@H](C(=O)[O-])[NH3+],O,0,0,8.7,['8.7'],['hunt_et_al']
393,CCn1cc(c(=O)c2c1nc(c(c2)F)N3CCNCC3)C(=O)[OH:22],O,0,0,6.2,['6.2'],['hunt_et_al']
394,CCn1cc(c(=O)c2c1nc(c(c2)F)N3CC[NH2+:17]CC3)C(=O)O,O,0,0,8.76,['8.76'],['hunt_et_al']
395,CCn1cc(c(=O)c2c1nc(c(c2)F)N3CC[NH2+:17]CC3)C(=O)[O-],O,0,0,8.76,['8.76'],['hunt_et_al']
396,CCn1cc(c(=O)c2c1nc(c(c2)F)N3CC[NH2+]CC3)C(=O)[OH:22],O,0,0,6.2,['6.2'],['hunt_et_al']
397,CC[SH:3],O,0,0,10.61,['10.61'],['hunt_et_al']
398,CCOCC[OH:5],O,0,0,14.98,['14.98'],['hunt_et_al']
399,CCOc1ccccc1OS(=O)(=O)[NH:19]C(=O)Nc2nc(cc(n2)OC)OC,O,0,0,5.28,['5.28'],['hunt_et_al']
400,CCOC(=O)[C@H](C[SH:9])N,O,0,0,6.53,['6.53'],['hunt_et_al']
401,CCOC(=O)C[SH:7],O,0,0,7.95,['7.95'],['hunt_et_al']
402,C[C@@H](Cc1ccc(cc1)C(C)(C)C)C[NH+:20]2CCCCC2,O,0,0,10.13,['10.13'],['hunt_et_al']
403,C[C@@H]1C[NH+:21](C[C@@H](O1)C)C[C@@H](C)Cc2ccc(cc2)C(C)(C)C,O,0,0,6.98,['6.98'],['hunt_et_al']
404,COc1cc(nc(n1)NC(=O)[NH:18]S(=O)(=O)c2c(cccn2)C(F)(F)F)OC,O,0,0,4.37,['4.37'],['hunt_et_al']
405,CN1CCN(CC1)c2c(cc3c(c2F)n(cc(c3=O)C(=O)[OH:23])CCF)F,O,0,0,5.6,['5.6'],['hunt_et_al']
406,C[NH+:20]1CCN(CC1)c2c(cc3c(c2F)n(cc(c3=O)C(=O)O)CCF)F,O,0,0,7.91,['7.91'],['hunt_et_al']
407,C[NH+:20]1CCN(CC1)c2c(cc3c(c2F)n(cc(c3=O)C(=O)[O-])CCF)F,O,0,0,7.91,['7.91'],['hunt_et_al']
408,C[NH+]1CCN(CC1)c2c(cc3c(c2F)n(cc(c3=O)C(=O)[OH:23])CCF)F,O,0,0,5.6,['5.6'],['hunt_et_al']
409,Cn1c(nn(c1=O)C(=O)[NH:16]S(=O)(=O)c2ccccc2OC(F)(F)F)OC,O,0,0,1.9,['1.9'],['hunt_et_al']
410,[C@@H](C(C(C(F)(F)F)(F)F)(F)F)(C(C(F)(F)F)(F)F)[OH:7],O,0,0,10.48,['10.48'],['hunt_et_al']
411,C(C(C(C(F)(F)F)(F)F)(F)F)(C(C(C(F)(F)F)(F)F)(F)F)[OH:8],O,0,0,10.52,['10.52'],['hunt_et_al']
412,C(C(F)(F)F)(C(F)(F)F)(C(F)(F)Cl)[OH:5],O,0,0,5.3,['5.3'],['hunt_et_al']
413,c1ccc2c(c1)-c3ccccc3C2(C(=O)[OH:16])O,O,0,0,1.09,['1.09'],['hunt_et_al']
414,c1cc(c(cc1N(=O)=O)Cl)[NH:14]S(=O)(=O)c2ccc(c(c2)C(F)(F)F)Cl,O,0,0,4.89,['4.89'],['hunt_et_al']
415,C(=O)N[OH:4],O,0,0,8.65,['8.65'],['hunt_et_al']
416,c1cc(oc1)C[NH3+:6],O,0,0,8.89,['8.89'],['hunt_et_al']
417,C[C@@H]1C[N@@](CCN1)c2c(cc3c(c2OC)n(cc(c3=O)C(=O)[OH:25])C4CC4)F,O,0,0,6.05,['6.05'],['hunt_et_al']
418,C[C@@H]1C[N@@](CC[NH2+:20]1)c2c(cc3c(c2OC)n(cc(c3=O)C(=O)O)C4CC4)F,O,0,0,9.18,['9.18'],['hunt_et_al']
419,C[C@@H]1C[N@@](CC[NH2+:20]1)c2c(cc3c(c2OC)n(cc(c3=O)C(=O)[O-])C4CC4)F,O,0,0,9.18,['9.18'],['hunt_et_al']
420,C[C@@H]1C[N@@](CC[NH2+]1)c2c(cc3c(c2OC)n(cc(c3=O)C(=O)[OH:25])C4CC4)F,O,0,0,6.05,['6.05'],['hunt_et_al']
421,CO/N=C/1\C[N@](C[C@@H]1CN)c2c(cc3c(=O)c(cn(c3n2)C4CC4)C(=O)[OH:26])F,O,0,0,6.36,['6.36'],['hunt_et_al']
422,CO/N=C/1\C[N@](C[C@@H]1C[NH3+:23])c2c(cc3c(=O)c(cn(c3n2)C4CC4)C(=O)O)F,O,0,0,8.6,['8.6'],['hunt_et_al']
423,CO/N=C/1\C[N@](C[C@@H]1C[NH3+:23])c2c(cc3c(=O)c(cn(c3n2)C4CC4)C(=O)[O-])F,O,0,0,8.6,['8.6'],['hunt_et_al']
424,CO/N=C/1\C[N@](C[C@@H]1C[NH3+])c2c(cc3c(=O)c(cn(c3n2)C4CC4)C(=O)[OH:26])F,O,0,0,6.36,['6.36'],['hunt_et_al']
425,C[C@@]12[C@H](C=C[C@@]3([C@@H]1[C@@H]([C@]45[C@H]3CC[C@](C4)(C(=C)C5)O)C(=O)[OH:23])OC2=O)O,O,0,0,4.0,['4.0'],['hunt_et_al']
426,C(CC(=O)N[C@@H](C[SH:20])C(=O)NCC(=O)O)[C@@H](C(=O)O)N,O,0,0,8.56,['8.56'],['hunt_et_al']
427,C(CC(=O)N[C@@H](C[SH:20])C(=O)NCC(=O)O)[C@@H](C(=O)[O-])[NH3+],O,0,0,8.56,['8.56'],['hunt_et_al']
428,Cn1c(c(c(n1)Cl)C(=O)OC)S(=O)(=O)[NH:19]C(=O)Nc2nc(cc(n2)OC)OC,O,0,0,3.44,['3.44'],['hunt_et_al']
429,C[C@@H](C(=O)[OH:18])Oc1ccc(cc1)Oc2c(cc(cn2)C(F)(F)F)Cl,O,0,0,2.9,['2.9'],['hunt_et_al']
430,C(C(F)(F)F)(C(F)(F)F)[OH:4],O,0,0,9.3,['9.3'],['hunt_et_al']
431,CCCCCC(=O)N[OH:9],O,0,0,9.75,['9.75'],['hunt_et_al']
432,c1ccc(cc1)C(=O)NCC(=O)N[OH:14],O,0,0,8.8,['8.8'],['hunt_et_al']
433,Cc1cc(no1)[OH:7],O,0,0,5.92,['5.92'],['hunt_et_al']
434,Cc1c(c2cc(ccc2n1C(=O)c3ccc(cc3)Cl)OC)CC(=O)[OH:23],O,0,0,4.42,['4.42'],['hunt_et_al']
435,Cc1nc(nc(n1)OC)NC(=O)[NH:19]S(=O)(=O)c2cc(ccc2C(=O)OC)I,O,0,0,3.22,['3.22'],['hunt_et_al']
436,c1cc(c(cc1[OH:11])C(F)(F)F)N(=O)=O,O,0,0,6.07,['6.07'],['hunt_et_al']
437,C[C@H]1COc2c3n1cc(c(=O)c3cc(c2N4CCN(CC4)C)F)C(=O)[OH:25],O,0,0,6.06,['6.06'],['hunt_et_al']
438,C[C@H]1COc2c3n1cc(c(=O)c3cc(c2N4CC[NH+:21](CC4)C)F)C(=O)O,O,0,0,8.14,['8.14'],['hunt_et_al']
439,C[C@H]1COc2c3n1cc(c(=O)c3cc(c2N4CC[NH+:21](CC4)C)F)C(=O)[O-],O,0,0,8.14,['8.14'],['hunt_et_al']
440,C[C@H]1COc2c3n1cc(c(=O)c3cc(c2N4CC[NH+](CC4)C)F)C(=O)[OH:25],O,0,0,6.06,['6.06'],['hunt_et_al']
441,CCn1cc(c(=O)c2c1c(c(c(c2)F)[N@@]3CCN[C@@H](C3)C)F)C(=O)[OH:23],O,0,0,5.82,['5.82'],['hunt_et_al']
442,Cc1cc(ccc1O[C@@H](C)C(=O)[OH:12])Cl,O,0,0,3.78,['3.78'],['hunt_et_al']
443,CC(=O)C[SH:5],O,0,0,7.86,['7.86'],['hunt_et_al']
444,C1[C@@H](C(=O)NC1=O)[SH:8],O,0,0,6.7,['6.7'],['hunt_et_al']
445,C1[C@@H](C(=O)[N-]C1=O)[SH:8],O,0,0,6.7,['6.7'],['hunt_et_al']
446,COc1cc(cc(c1OC)OC)CC[NH3+:12],O,0,0,9.56,['9.56'],['hunt_et_al']
447,COc1cc(nc(n1)NC(=O)[NH:21]S(=O)(=O)c2cc(ccc2C(=O)OC)CNS(=O)(=O)C)OC,O,0,0,4.35,['4.35'],['hunt_et_al']
448,C[SH:2],O,0,0,10.33,['10.33'],['hunt_et_al']
449,C[OH:2],O,0,0,15.5,['15.5'],['hunt_et_al']
450,COC(=O)C[SH:6],O,0,0,8.08,['8.08'],['hunt_et_al']
451,Cc1nc(nc(n1)OC)NC(=O)[NH:19]S(=O)(=O)c2ccccc2C(=O)OC,O,0,0,3.8,['3.8'],['hunt_et_al']
452,c1cc(cc(c1)N(=O)=O)C(=O)N[OH:13],O,0,0,8.07,['8.07'],['hunt_et_al']
453,COc1c2c(cc(c1[N@@]3C[C@@H]4CCCN[C@@H]4C3)F)c(=O)c(cn2C5CC5)C(=O)[OH:27],O,0,0,6.31,['6.31'],['hunt_et_al']
454,COc1c2c(cc(c1[N@@]3C[C@@H]4CCC[NH2+:22][C@@H]4C3)F)c(=O)c(cn2C5CC5)C(=O)O,O,0,0,9.51,['9.51'],['hunt_et_al']
455,COc1c2c(cc(c1[N@@]3C[C@@H]4CCC[NH2+:22][C@@H]4C3)F)c(=O)c(cn2C5CC5)C(=O)[O-],O,0,0,9.51,['9.51'],['hunt_et_al']