,Solute SMILES,Solvent SMILES,Solute CAS,Solute IUPAC,pKa (avg),pKa (all),Source
2960,C[C@H]1c2ccncc2N(Cc2ccccc2)C[C@@H](C)N1C(=O)NCc1ccccc1,O,0,0,6.2,['6.2'],['combined_training_datasets_unique.sdf']
2961,C[C@](Cc1c[nH]c2ccccc12)(NC(=O)OC1C2CC3CC(C2)CC1C3)C(=O)NC[C@@H](NC(=O)CCC(=O)[O-])c1ccccc1,O,0,0,5.6,['5.6'],['combined_training_datasets_unique.sdf']
2962,C[C@](Cc1c[nH]c2ccccc12)(NC(=O)OC1C2CC3CC(C2)CC1C3)C(=O)NC[C@@H](NC(=O)CCNS(=O)(=O)C(F)(F)F)c1ccccc1,O,0,0,7.9,['7.9'],['combined_training_datasets_unique.sdf']
2963,C[C@](Cc1c[nH]c2ccccc12)(NC(=O)OC1C2CC3CC(C2)CC1C3)C(=O)NC[C@@H](NC(=O)CCc1nn[n-]n1)c1ccccc1,O,0,0,5.4,['5.4'],['combined_training_datasets_unique.sdf']
2964,C[C@](Cc1c[nH]c2ccccc12)(NC(=O)OC1C2CC3CC(C2)CC1C3)C(=O)NC[C@H](NC(=O)CCNS(=O)(=O)C(F)(F)F)c1ccccc1,O,0,0,7.9,['7.9'],['combined_training_datasets_unique.sdf']
2965,C[C@](Cc1c[nH]c2ccccc12)(NC(=O)OC1C2CC3CC(C2)CC1C3)C(=O)NC[C@H](NC(=O)CCc1nn[n-]n1)c1ccccc1,O,0,0,5.4,['5.4'],['combined_training_datasets_unique.sdf']
2966,C[C@]1(C2CCCC2)Cc2cc(OCC(=O)[O-])c(Cl)c(Cl)c2C1=O,O,0,0,3.9,['3.9'],['combined_training_datasets_unique.sdf']
2967,C[C@]1(C2CCCC2)Cc2cc(OCCCC(=O)[O-])c(Cl)c(Cl)c2C1=O,O,0,0,5.7,['5.7'],['combined_training_datasets_unique.sdf']
2968,C[C@]1(O)CCCC[C@@H]1[NH3+],O,0,0,9.49,['9.49'],['combined_training_datasets_unique.sdf']
2969,C[C@]1(c2cc(NC(=O)c3ccc(C#N)cn3)ccc2F)[NH+]=C(N)CO[C@@H]1F,O,0,0,7.9,['7.9'],['combined_training_datasets_unique.sdf']
2970,C[C@]1(c2cc(NC(=O)c3ccc(C#N)cn3)ccc2F)[NH+]=C(N)OCC1(F)F,O,0,0,5.8,['5.8'],['combined_training_datasets_unique.sdf']
2971,C[C@]1(c2cc(NC(=O)c3ccc(C#N)cn3)ccc2F)[NH+]=C(N)OC[C@@H]1F,O,0,0,8.1,['8.1'],['combined_training_datasets_unique.sdf']
2972,C[C@]1(c2cc(NC(=O)c3ccc(C#N)cn3)ccc2F)[NH+]=C(N)OC[C@H]1F,O,0,0,7.4,['7.4'],['combined_training_datasets_unique.sdf']
2973,C[C@]1(c2cc(NC(=O)c3ccc(C#N)cn3)ccc2F)[NH+]=C(N)O[C@@H](C(F)(F)F)[C@@H]1F,O,0,0,5.8,['5.8'],['combined_training_datasets_unique.sdf']
2974,C[C@]1(c2cc(NC(=O)c3ccc(C#N)cn3)ccc2F)[NH+]=C(N)O[C@H](C(F)(F)F)[C@@H]1F,O,0,0,5.9,['5.9'],['combined_training_datasets_unique.sdf']
2975,C[C@]1(c2cc(NC(=O)c3ccc(Cl)cn3)ccc2F)[NH+]=C(N)CO[C@@H]1F,O,0,0,7.9,['7.9'],['combined_training_datasets_unique.sdf']
2976,C[C@]1(c2cc(NC(=O)c3ccc(Cl)cn3)ccc2F)[NH+]=C(N)OCC1(F)F,O,0,0,6.3,['6.3'],['combined_training_datasets_unique.sdf']
2977,C[C@]1(c2cc(NC(=O)c3ccc(Cl)cn3)ccc2F)[NH+]=C(N)SCC1(F)F,O,0,0,6.1,['6.1'],['combined_training_datasets_unique.sdf']
2978,C[C@]1(c2cc(NC(=O)c3cnc(Cl)cn3)ccc2F)[NH+]=C(N)CO[C@@H]1C(F)(F)F,O,0,0,8.0,['8.0'],['combined_training_datasets_unique.sdf']
2979,C[C@]1(c2cc(NC(=O)c3cnc(Cl)cn3)ccc2F)[NH+]=C(N)CO[C@@]1(F)C(F)(F)F,O,0,0,6.8,['6.8'],['combined_training_datasets_unique.sdf']
2980,C[C@]1(c2cc(NC(=O)c3cnc(Cl)cn3)ccc2F)[NH+]=C(N)CO[C@H]1C(F)(F)F,O,0,0,7.8,['7.8'],['combined_training_datasets_unique.sdf']
2981,C[C@]1(c2cc(NC(=O)c3cnc(Cl)cn3)ccc2F)[NH+]=C(N)CO[C@]1(F)C(F)(F)F,O,0,0,6.9,['6.9'],['combined_training_datasets_unique.sdf']
2982,C[C@]1(c2cccc(NC(=O)c3ccc(Cl)cn3)c2)[NH+]=C(N)c2ccccc21,O,0,0,9.7,['9.7'],['combined_training_datasets_unique.sdf']
2983,C[C@]12CCOC[C@@H]1[C@]1(COC(N)=[NH+]1)c1cc(-c3cc(F)cc(Cl)c3)ccc1O2,O,0,0,6.7,['6.7'],['combined_training_datasets_unique.sdf']
2984,C[C@]12CC[C@@H]3C(=O)O[C@@H](C(=O)[O-])C[C@]3(C)[C@H]1[C@H]1CCC2(O)C(=O)O1,O,0,0,3.5,['3.5'],['combined_training_datasets_unique.sdf']
2985,C[C@]12CC[C@@H]3c4ccc(O)cc4CC[C@H]3[C@@H]1C[C@@H](O)[C@@H]2O,O,0,0,10.8,['10.8'],['combined_training_datasets_unique.sdf']
2986,C[C@]12CC[C@@H]3c4ccc(OS(N)(=O)=O)cc4CC[C@H]3[C@@H]1CCC2=O,O,0,0,8.37,['8.37'],['combined_training_datasets_unique.sdf']
2987,C[C@]12CC[C@H]3[C@@H](CC=C4C[C@@H](O)CC[C@@]43C)[C@@H]1CC[C@@H]2[C@@H](O)CC(O)(C(F)(F)F)C(F)(F)F,O,0,0,9.04,['9.04'],['combined_training_datasets_unique.sdf']
2988,C[C@]12CC[C@H]3[C@@H](CC=C4C[C@@H](O)CC[C@@]43C)[C@@H]1CC[C@@H]2[C@H](O)CC(O)(C(F)(F)F)C(F)(F)F,O,0,0,9.08,['9.08'],['combined_training_datasets_unique.sdf']
2989,C[C@]12[NH2+][C@H](Cc3ccccc31)c1ccccc12,O,0,0,5.81,['5.81'],['combined_training_datasets_unique.sdf']
2990,C[N+](C)(C)CC(O)CC(=O)[O-],O,0,0,3.8,['3.8'],['combined_training_datasets_unique.sdf']
2991,C[N+](C)(C)CCCC(=O)[O-],O,0,0,4.02,['4.02'],['combined_training_datasets_unique.sdf']
2992,C[N+](C)(C)CCCc1ccc(O)cc1,O,0,0,9.8,['9.8'],['combined_training_datasets_unique.sdf']
2993,C[N+](C)(C)CCCc1cccc(O)c1,O,0,0,9.64,['9.64'],['combined_training_datasets_unique.sdf']
2994,C[N+](C)(C)CCCc1ccccc1O,O,0,0,9.78,['9.78'],['combined_training_datasets_unique.sdf']
2995,C[N+](C)(C)CCN,O,0,0,7.34,['7.34'],['combined_training_datasets_unique.sdf']
2996,C[N+](C)(C)CCOC(=O)/C=C/c1cnc[nH]1,O,0,0,4.6,['4.6'],['combined_training_datasets_unique.sdf']
2997,C[N+](C)(C)CCS,O,0,0,7.98,['7.98'],['combined_training_datasets_unique.sdf']
2998,C[N+](C)(C)CCSC(N=O)C(=O)c1ccc(Br)cc1,O,0,0,7.18,['7.18'],['combined_training_datasets_unique.sdf']
2999,C[N+](C)(C)CCSC(N=O)C(=O)c1ccc(Cl)cc1,O,0,0,7.19,['7.19'],['combined_training_datasets_unique.sdf']
3000,C[N+](C)(C)CCSC(N=O)C(=O)c1ccc(F)cc1,O,0,0,7.36,['7.36'],['combined_training_datasets_unique.sdf']
3001,C[N+](C)(C)CCc1ccc(O)cc1,O,0,0,9.8,['9.8'],['combined_training_datasets_unique.sdf']
3002,C[N+](C)(C)CCc1cccc(O)c1,O,0,0,9.43,['9.43'],['combined_training_datasets_unique.sdf']
3003,C[N+](C)(C)CCc1ccccc1O,O,0,0,9.57,['9.57'],['combined_training_datasets_unique.sdf']
3004,C[N+](C)(C)Cc1ccc(O)cc1,O,0,0,8.75,['8.75'],['combined_training_datasets_unique.sdf']
3005,C[N+](C)(C)Cc1ccc([S-])cc1,O,0,0,5.5,['5.5'],['combined_training_datasets_unique.sdf']
3006,C[N+](C)(C)Cc1cccc(O)c1,O,0,0,8.89,['8.89'],['combined_training_datasets_unique.sdf']
3007,C[N+](C)(C)Cc1cccc(O)c1O,O,0,0,8.1,['8.1'],['combined_training_datasets_unique.sdf']
3008,C[N+](C)(C)Cc1ccccc1O,O,0,0,8.71,['8.71'],['combined_training_datasets_unique.sdf']
3009,C[N+](C)(C)[O-],O,0,0,4.65,['4.65'],['combined_training_datasets_unique.sdf']
3010,C[N+](C)(C)c1ccc([O-])cc1,O,0,0,8.25,['8.25'],['combined_training_datasets_unique.sdf']
3011,C[N+](C)(C)c1cccc(O)c1,O,0,0,8.07,['8.07'],['combined_training_datasets_unique.sdf']
3012,C[N+](C)(C)c1ccccc1[O-],O,0,0,7.46,['7.46'],['combined_training_datasets_unique.sdf']
3013,C[N+]1(CC(=O)[O-])CCCCC1,O,0,0,2.01,['2.01'],['combined_training_datasets_unique.sdf']
3014,C[N+]1(CCC(=O)[O-])CCCCC1,O,0,0,3.43,['3.43'],['combined_training_datasets_unique.sdf']
3015,C[N+]1(CCCC(=O)[O-])CCCCC1,O,0,0,4.11,['4.11'],['combined_training_datasets_unique.sdf']
3016,C[N+]1(CCCCC(=O)[O-])CCCCC1,O,0,0,4.33,['4.33'],['combined_training_datasets_unique.sdf']
3017,C[N+]1(CCCCCC(=O)[O-])CCCCC1,O,0,0,4.44,['4.44'],['combined_training_datasets_unique.sdf']
3018,C[NH+](C)C,O,0,0,9.88,['9.88'],['combined_training_datasets_unique.sdf']
3019,C[NH+](C)C(C)(C)C,O,0,0,10.52,['10.52'],['combined_training_datasets_unique.sdf']
3020,C[NH+](C)C(C)(C)C=O,O,0,0,8.4,['8.4'],['combined_training_datasets_unique.sdf']
3021,C[NH+](C)C(C)(C)CCCc1ccc(C(C)(C)C)cc1,O,0,0,10.4,['10.4'],['combined_training_datasets_unique.sdf']
3022,C[NH+](C)C1(CCCc2ccc(C(C)(C)C)cc2)COC1,O,0,0,7.2,['7.2'],['combined_training_datasets_unique.sdf']
3023,C[NH+](C)C1CC2c3ccccc3C1c1ccccc12,O,0,0,8.67,['8.67'],['combined_training_datasets_unique.sdf']
3024,C[NH+](C)C1CCCCC1,O,0,0,10.48,['10.48'],['combined_training_datasets_unique.sdf']
3025,C[NH+](C)CC(=O)[O-],O,0,0,9.81,['9.81'],['combined_training_datasets_unique.sdf']
3026,C[NH+](C)CC(C)(C)C,O,0,0,9.75,['9.75'],['combined_training_datasets_unique.sdf']
3027,C[NH+](C)CC(C)(C)CCc1ccc(C(C)(C)C)cc1,O,0,0,9.4,['9.4'],['combined_training_datasets_unique.sdf']
3028,C[NH+](C)CC(C)(C)CNC(=O)[C@H]1C[C@@H]1c1ccccc1,O,0,0,8.9,['8.9'],['combined_training_datasets_unique.sdf']
3029,C[NH+](C)CC(CSC#N)SC#N,O,0,0,6.1,['6.1'],['combined_training_datasets_unique.sdf']
3030,C[NH+](C)CC(CSCc1ccccc1)SCc1ccccc1,O,0,0,7.3,['7.3'],['combined_training_datasets_unique.sdf']
3031,C[NH+](C)CC(Cc1ccccc1)c1ccccc1,O,0,0,9.93,['9.93'],['combined_training_datasets_unique.sdf']
3032,C[NH+](C)CC(Cl)CCl,O,0,0,7.5,['7.5'],['combined_training_datasets_unique.sdf']
3033,C[NH+](C)CC(Oc1ccccc1)Oc1ccccc1,O,0,0,9.2,['9.2'],['combined_training_datasets_unique.sdf']
3034,C[NH+](C)CC(P(=O)([O-])[O-])P(=O)([O-])[O-],O,0,0,8.98,['8.98'],['combined_training_datasets_unique.sdf']
3035,C[NH+](C)CC/C=C1/c2ccccc2Sc2ccc(Cl)cc21,O,0,0,8.84,['8.84'],['combined_training_datasets_unique.sdf']
3036,C[NH+](C)CC1(CCc2ccc(C(C)(C)C)cc2)COC1,O,0,0,8.0,['8.0'],['combined_training_datasets_unique.sdf']
3037,C[NH+](C)CC1=CC2c3ccccc3C1c1ccccc12,O,0,0,8.04,['8.04'],['combined_training_datasets_unique.sdf']
3038,C[NH+](C)CC1C2c3ccccc3C(c3ccccc32)C1CO,O,0,0,8.86,['8.86'],['combined_training_datasets_unique.sdf']
3039,C[NH+](C)CCBr,O,0,0,7.55,['7.55'],['combined_training_datasets_unique.sdf']
3040,C[NH+](C)CCC(=O)C(C)(C)C,O,0,0,9.49,['9.49'],['combined_training_datasets_unique.sdf']
3041,C[NH+](C)CCC(C#N)(c1ccccc1)c1ccccc1,O,0,0,8.31,['8.31'],['combined_training_datasets_unique.sdf']
3042,C[NH+](C)CCC(C)(C)Cc1ccc(C(C)(C)C)cc1,O,0,0,9.5,['9.5'],['combined_training_datasets_unique.sdf']
3043,C[NH+](C)CCC(c1ccccc1)c1ccc(-c2ccccc2)cc1,O,0,0,9.85,['9.85'],['combined_training_datasets_unique.sdf']
3044,C[NH+](C)CCC(c1ccccc1)c1ccccc1,O,0,0,9.7,['9.7'],['combined_training_datasets_unique.sdf']
3045,C[NH+](C)CCC1(Cc2ccc(C(C)(C)C)cc2)COC1,O,0,0,9.2,['9.2'],['combined_training_datasets_unique.sdf']
3046,C[NH+](C)CCC=C1c2ccccc2C=Cc2ccccc21,O,0,0,9.69,['9.69'],['combined_training_datasets_unique.sdf']
3047,C[NH+](C)CCC=C1c2ccccc2CCc2ccccc21,O,0,0,9.42,['9.42'],['combined_training_datasets_unique.sdf']
3048,C[NH+](C)CCC=C1c2ccccc2COc2ccccc21,O,0,0,8.5925,['8.5925'],['combined_training_datasets_unique.sdf']
3049,C[NH+](C)CCCC(=O)Oc1ccccc1,O,0,0,9.7,['9.7'],['combined_training_datasets_unique.sdf']
3050,C[NH+](C)CCCC(C)(C)c1ccc(C(C)(C)C)cc1,O,0,0,9.8,['9.8'],['combined_training_datasets_unique.sdf']
3051,C[NH+](C)CCCC1(c2ccc(C(C)(C)C)cc2)COC1,O,0,0,9.6,['9.6'],['combined_training_datasets_unique.sdf']
3052,C[NH+](C)CCCC1(c2ccc(F)cc2)OCc2cc(C#N)ccc21,O,0,0,9.5,['9.5'],['combined_training_datasets_unique.sdf']
3053,C[NH+](C)CCCCC(=O)Oc1ccccc1,O,0,0,10.0,['10.0'],['combined_training_datasets_unique.sdf']
3054,C[NH+](C)CCCCCCCCCCNC(=O)CN=O,O,0,0,9.795,['9.795'],['combined_training_datasets_unique.sdf']
3055,C[NH+](C)CCCCCCCCCNC(=O)CN=O,O,0,0,9.755,['9.755'],['combined_training_datasets_unique.sdf']
3056,C[NH+](C)CCCCCCCCNC(=O)CN=O,O,0,0,9.735,['9.735'],['combined_training_datasets_unique.sdf']
3057,C[NH+](C)CCCCCCCNC(=O)CN=O,O,0,0,9.725,['9.725'],['combined_training_datasets_unique.sdf']
3058,C[NH+](C)CCCCCCNC(=O)CN=O,O,0,0,9.68,['9.68'],['combined_training_datasets_unique.sdf']
3059,C[NH+](C)CCCCCNC(=O)CN=O,O,0,0,9.585,['9.585'],['combined_training_datasets_unique.sdf']
3060,C[NH+](C)CCCCNC(=O)CN=O,O,0,0,9.47,['9.47'],['combined_training_datasets_unique.sdf']
3061,C[NH+](C)CCCCc1ccc(C(C)(C)C)cc1,O,0,0,9.9,['9.9'],['combined_training_datasets_unique.sdf']
3062,C[NH+](C)CCCCc1ccc(C2(C)COC2)cc1,O,0,0,9.9,['9.9'],['combined_training_datasets_unique.sdf']
3063,C[NH+](C)CCCCc1ccc(C2(F)COC2)cc1,O,0,0,9.9,['9.9'],['combined_training_datasets_unique.sdf']
3064,C[NH+](C)CCCCc1ccc(C2(O)COC2)cc1,O,0,0,9.6,['9.6'],['combined_training_datasets_unique.sdf']
3065,C[NH+](C)CCCCc1ccc(C2COC2)cc1,O,0,0,9.9,['9.9'],['combined_training_datasets_unique.sdf']
3066,C[NH+](C)CCCN1c2cc(F)ccc2CCc2ccc(F)cc21,O,0,0,7.65,['7.65'],['combined_training_datasets_unique.sdf']
3067,C[NH+](C)CCCN1c2ccccc2CCc2ccc(Cl)cc21,O,0,0,9.34,['9.34'],['combined_training_datasets_unique.sdf']
3068,C[NH+](C)CCCN1c2ccccc2CCc2ccccc21,O,0,0,9.472857,['9.472857'],['combined_training_datasets_unique.sdf']
3069,C[NH+](C)CCCN1c2ccccc2Sc2ccc(C#N)cc21,O,0,0,9.29,['9.29'],['combined_training_datasets_unique.sdf']
3070,C[NH+](C)CCCN1c2ccccc2Sc2ccc(C(F)(F)F)cc21,O,0,0,9.216,['9.216'],['combined_training_datasets_unique.sdf']
3071,C[NH+](C)CCCN1c2ccccc2Sc2ccc(Cl)cc21,O,0,0,9.271818,['9.271818'],['combined_training_datasets_unique.sdf']
3072,C[NH+](C)CCCN1c2ccccc2Sc2ccccc21,O,0,0,9.36,['9.36'],['combined_training_datasets_unique.sdf']
3073,C[NH+](C)CCCNC(=O)CN=O,O,0,0,9.23,['9.23'],['combined_training_datasets_unique.sdf']
3074,C[NH+](C)CCCO,O,0,0,9.76,['9.76'],['combined_training_datasets_unique.sdf']
3075,C[NH+](C)CCCc1ccc(-c2ccc(Cl)cc2)cc1,O,0,0,9.96,['9.96'],['combined_training_datasets_unique.sdf']
3076,C[NH+](C)CCCc1ccc(-c2ccccc2)cc1,O,0,0,9.88,['9.88'],['combined_training_datasets_unique.sdf']
3077,C[NH+](C)CCCc1ccc(Br)cc1,O,0,0,10.62,['10.62'],['combined_training_datasets_unique.sdf']
3078,C[NH+](C)CCCc1ccc(C(C)(C)C)cc1,O,0,0,10.03,['10.03'],['combined_training_datasets_unique.sdf']
3079,C[NH+](C)CCCc1ccc(Cl)cc1,O,0,0,10.59,['10.59'],['combined_training_datasets_unique.sdf']
3080,C[NH+](C)CCCc1ccc2ccccc2c1,O,0,0,10.27,['10.27'],['combined_training_datasets_unique.sdf']
3081,C[NH+](C)CCCc1ccccc1,O,0,0,10.96,['10.96'],['combined_training_datasets_unique.sdf']
3082,C[NH+](C)CCNC(=O)CN=O,O,0,0,8.8,['8.8'],['combined_training_datasets_unique.sdf']
3083,C[NH+](C)CCO,O,0,0,9.36,['9.36'],['combined_training_datasets_unique.sdf']
3084,C[NH+](C)CCO/N=C1/C[C@H]2C(C)(C)O[C@H]3CC(=O)OC[C@]32[C@H]2CC[C@@]3(C)[C@H](c4ccoc4)OC(=O)[C@H]4O[C@]43[C@]12C,O,0,0,8.78,['8.78'],['combined_training_datasets_unique.sdf']
3085,C[NH+](C)CCO/N=C1/C[C@H]2C(C)(C)O[C@H]3CC(=O)OC[C@]32[C@H]2CC[C@]3(C)C(=CC(=O)O[C@H]3c3ccoc3)[C@]12C,O,0,0,8.88,['8.88'],['combined_training_datasets_unique.sdf']
3086,C[NH+](C)CCOC(C)(c1ccccc1)c1ccccc1,O,0,0,8.75,['8.75'],['combined_training_datasets_unique.sdf']
3087,C[NH+](C)CCOC(c1ccccc1)c1ccc(Br)cc1,O,0,0,8.64,['8.64'],['combined_training_datasets_unique.sdf']
3088,C[NH+](C)CCOC(c1ccccc1)c1ccccc1,O,0,0,9.066667,['9.066667'],['combined_training_datasets_unique.sdf']
3089,C[NH+](C)CCOc1ccc(C(=O)N2C/C(=C\c3ccccc3)C(=O)/C(=C/c3ccccc3)C2)cc1,O,0,0,10.73,['10.73'],['combined_training_datasets_unique.sdf']
3090,C[NH+](C)C[C@H]1[C@@H]2C=C[C@@H](C2)[C@H]1CO,O,0,0,9.54,['9.54'],['combined_training_datasets_unique.sdf']
3091,C[NH+](C)Cc1c(C(C)(C)C)cccc1C(C)(C)C,O,0,0,9.2,['9.2'],['combined_training_datasets_unique.sdf']
3092,C[NH+](C)Cc1ccc(NC(=O)CN=O)cc1,O,0,0,8.995,['8.995'],['combined_training_datasets_unique.sdf']
3093,C[NH+](C)Cc1cccc(NC(=O)CN=O)c1,O,0,0,8.7,['8.7'],['combined_training_datasets_unique.sdf']
3094,C[NH+](C)Cc1ccccc1,O,0,0,8.995,['8.995'],['combined_training_datasets_unique.sdf']
3095,C[NH+](C)Cc1ccccc1C(=O)N(CCc1ccc(Cl)cc1)C1CCC2(CC1)OCCO2,O,0,0,8.4,['8.4'],['combined_training_datasets_unique.sdf']
3096,C[NH+](C)Cc1ccccc1CO,O,0,0,8.78,['8.78'],['combined_training_datasets_unique.sdf']
3097,C[NH+](C)Cc1no[n+]([O-])c1C#N,O,0,0,5.82,['5.82'],['combined_training_datasets_unique.sdf']
3098,C[NH+](C)[C@H]1CCCC[C@@H]1O,O,0,0,10.42,['10.42'],['combined_training_datasets_unique.sdf']
3099,C[NH+](C)[C@H]1CC[C@@H](C)CC1,O,0,0,10.46,['10.46'],['combined_training_datasets_unique.sdf']
3100,C[NH+](C/C=C/C#CC(C)(C)C)Cc1cccc2ccccc12,O,0,0,8.5,['8.5'],['combined_training_datasets_unique.sdf']
3101,C[NH+](CC#CCN1CCCC1=O)CCBr,O,0,0,5.6,['5.6'],['combined_training_datasets_unique.sdf']
3102,C[NH+](CC(N)=O)C1CCC(OCc2cc(C(F)(F)F)cc(C(F)(F)F)c2)C1c1ccccc1,O,0,0,5.8,['5.8'],['combined_training_datasets_unique.sdf']
3103,C[NH+](CC(N)=O)[C@@H]1CC[C@H](OCc2cc(C(F)(F)F)cc(C(F)(F)F)c2)[C@H]1c1ccccc1,O,0,0,5.8,['5.8'],['combined_training_datasets_unique.sdf']
3104,C[NH+](CC1CO1)CC1CO1,O,0,0,6.45,['6.45'],['combined_training_datasets_unique.sdf']
3105,C[NH+](CCCCCCOc1ccc(C(=O)c2ccc(Br)cc2)cc1)C1CC1,O,0,0,7.48,['7.48'],['combined_training_datasets_unique.sdf']
3106,C[NH+](CCCCCCOc1ccc(C(=O)c2ccc(Br)cc2)cc1)CC1CC1,O,0,0,9.37,['9.37'],['combined_training_datasets_unique.sdf']
3107,C[NH+](CCCN1c2ccccc2CCc2ccccc21)CC(=O)c1ccc(Cl)cc1,O,0,0,6.7,['6.7'],['combined_training_datasets_unique.sdf']
3108,C[NH+](CCCO)CCCCCCOc1ccc(C(=O)c2ccc(Br)cc2)cc1,O,0,0,9.05,['9.05'],['combined_training_datasets_unique.sdf']
3109,C[NH+](CCCl)CCCl,O,0,0,6.45,['6.45'],['combined_training_datasets_unique.sdf']
3110,C[NH+](CCO)CCCl,O,0,0,7.5,['7.5'],['combined_training_datasets_unique.sdf']
3111,C[NH+](CCO)CCO,O,0,0,8.51,['8.51'],['combined_training_datasets_unique.sdf']
3112,C[NH+](Cc1cc(Br)cc(Br)c1N)C1CCCCC1,O,0,0,8.5,['8.5'],['combined_training_datasets_unique.sdf']
3113,C[NH+](Cc1ccc(OC2CN(C(=O)c3nnc(-c4ccccc4)o3)C2)cc1)CC1(C)COC1,O,0,0,8.5,['8.5'],['combined_training_datasets_unique.sdf']
3114,C[NH+]1C(C)(C)CCCC1(C)C,O,0,0,11.25,['11.25'],['combined_training_datasets_unique.sdf']
3115,C[NH+]1C2=CCCC1CCC2,O,0,0,8.8,['8.8'],['combined_training_datasets_unique.sdf']
3116,C[NH+]1C2CC(OC(=O)c3c[nH]c4ccccc34)CC1C1OC12,O,0,0,6.64,['6.64'],['combined_training_datasets_unique.sdf']
3117,C[NH+]1C2CCC1CC(=NOC(c1ccccc1)c1ccc(Cl)cc1)C2,O,0,0,8.34,['8.34'],['combined_training_datasets_unique.sdf']
3118,C[NH+]1C2CCC1CC(NC(=O)N1CC(C)(C)c3ccccc31)C2,O,0,0,9.4,['9.4'],['combined_training_datasets_unique.sdf']
3119,C[NH+]1C2COCC1CC(NC(=O)N1CC(C)(C)c3ccccc31)C2,O,0,0,7.1,['7.1'],['combined_training_datasets_unique.sdf']
3120,C[NH+]1C=C(C#N)C=CC1,O,0,0,2.7,['2.7'],['combined_training_datasets_unique.sdf']
3121,C[NH+]1C=C(C#N)CCC1,O,0,0,2.7,['2.7'],['combined_training_datasets_unique.sdf']
3122,C[NH+]1C=CNC1N,O,0,0,8.54,['8.54'],['combined_training_datasets_unique.sdf']
3123,C[NH+]1CC1,O,0,0,7.86,['7.86'],['combined_training_datasets_unique.sdf']
3124,C[NH+]1CC=CC1,O,0,0,9.92,['9.92'],['combined_training_datasets_unique.sdf']
3125,C[NH+]1CC=NC1,O,0,0,7.12,['7.12'],['combined_training_datasets_unique.sdf']
3126,C[NH+]1CCC(=C2c3ccccc3C=Cc3ccccc32)CC1,O,0,0,8.87,['8.87'],['combined_training_datasets_unique.sdf']
3127,C[NH+]1CCC(OC(c2ccccc2)c2ccccc2)CC1,O,0,0,8.9,['8.9'],['combined_training_datasets_unique.sdf']
3128,C[NH+]1CCC(c2c3ccccc3cc(=O)c3sccc23)CC1,O,0,0,8.24,['8.24'],['combined_training_datasets_unique.sdf']
3129,C[NH+]1CCC1,O,0,0,10.4,['10.4'],['combined_training_datasets_unique.sdf']
3130,C[NH+]1CCC2=C(C1)C(c1ccccc1)c1ccccc12,O,0,0,8.29,['8.29'],['combined_training_datasets_unique.sdf']
3131,C[NH+]1CCC=CC1=CN=O,O,0,0,6.32,['6.32'],['combined_training_datasets_unique.sdf']
3132,C[NH+]1CCCC(n2nc(Cc3ccc(Cl)cc3)c3ccccc3c2=O)CC1,O,0,0,9.54,['9.54'],['combined_training_datasets_unique.sdf']
3133,C[NH+]1CCCC1,O,0,0,10.58,['10.58'],['combined_training_datasets_unique.sdf']
3134,C[NH+]1CCCC1CCOC(C)(c1ccccc1)c1ccc(Cl)cc1,O,0,0,9.2,['9.2'],['combined_training_datasets_unique.sdf']
3135,C[NH+]1CCCC1c1ccccc1,O,0,0,8.8,['8.8'],['combined_training_datasets_unique.sdf']
3136,C[NH+]1CCCCC1,O,0,0,9.09,['9.09'],['combined_training_datasets_unique.sdf']
3137,C[NH+]1CCCCC1CCN1c2ccccc2Sc2ccc(S(C)=O)cc21,O,0,0,9.61,['9.61'],['combined_training_datasets_unique.sdf']
3138,C[NH+]1CCCCCC1,O,0,0,10.96,['10.96'],['combined_training_datasets_unique.sdf']
3139,C[NH+]1CCN(C(=O)c2ccccc2)CC1,O,0,0,6.78,['6.78'],['combined_training_datasets_unique.sdf']
3140,C[NH+]1CCN(C(C#N)c2ccc3c(c2)OCO3)CC1,O,0,0,7.6,['7.6'],['combined_training_datasets_unique.sdf']
3141,C[NH+]1CCN(C(c2ccccc2)c2ccc(Cl)cc2)CC1,O,0,0,7.81,['7.81'],['combined_training_datasets_unique.sdf']
3142,C[NH+]1CCN(C2=[NH+]c3ccccc3Oc3ccc(Cl)cc32)CC1,O,0,0,7.513333,['7.513333'],['combined_training_datasets_unique.sdf']
3143,C[NH+]1CCN(c2ccccc2/C=C2\SCCN(c3ccc(Cl)c(Cl)c3)C2=O)CC1,O,0,0,11.5,['11.5'],['combined_training_datasets_unique.sdf']
3144,C[NH+]1CCN(c2nc3c(=O)c4cc(F)ccc4[nH]c3s2)CC1,O,0,0,8.0,['8.0'],['combined_training_datasets_unique.sdf']
3145,C[NH+]1CCN(c2nc3c(=O)c4ccccc4[nH]c3s2)CC1,O,0,0,8.6,['8.6'],['combined_training_datasets_unique.sdf']
3146,C[NH+]1CCN2c3ccccc3Cc3ccccc3C2C1,O,0,0,7.75,['7.75'],['combined_training_datasets_unique.sdf']
3147,C[NH+]1CCOC(c2ccccc2)c2ccccc2C1,O,0,0,9.3,['9.3'],['combined_training_datasets_unique.sdf']
3148,C[NH+]1CCOCC1,O,0,0,7.53,['7.53'],['combined_training_datasets_unique.sdf']
3149,C[NH+]1CC[C@H]2CCC[C@@H](NC(=O)c3ccc(Cl)c(Cl)c3)[C@H]2C1,O,0,0,9.05,['9.05'],['combined_training_datasets_unique.sdf']