,Solute SMILES,Solvent SMILES,Solute CAS,Solute IUPAC,pKa (avg),pKa (all),Source
1003,CC1CCCN1C(=O)c1ccc2cc(OC3CC[NH+](C(C)C)CC3)ccc2c1,O,0,0,9.71,['9.71'],['combined_training_datasets_unique.sdf']
1004,CC1CCC[C@H](C(C)C(=O)[O-])C1,O,0,0,4.59,['4.59'],['combined_training_datasets_unique.sdf']
1005,CC1CCC[NH+](C(C)C=C(c2cccs2)c2cccs2)C1,O,0,0,8.28,['8.28'],['combined_training_datasets_unique.sdf']
1006,CC1CCC[NH+]1C,O,0,0,10.24,['10.24'],['combined_training_datasets_unique.sdf']
1007,CC1CCC[NH2+]C1,O,0,0,10.92,['10.92'],['combined_training_datasets_unique.sdf']
1008,CC1CCN(C(=O)c2ccc3cc(OC4CC[NH+](C(C)C)C4)ccc3c2)CC1,O,0,0,9.4,['9.4'],['combined_training_datasets_unique.sdf']
1009,CC1CCN(C(=O)c2ccc3cc(OC4CC[NH+](C(C)C)CC4)ccc3c2)CC1,O,0,0,9.6,['9.6'],['combined_training_datasets_unique.sdf']
1010,CC1CCN(C(=O)c2ccc3cc(OCCC4CCC[NH+]4C)ccc3c2)CC1,O,0,0,9.9,['9.9'],['combined_training_datasets_unique.sdf']
1011,CC1CCN(C(=O)c2ccc3cc(OCCC[NH+]4CCCCC4)ccc3c2)CC1,O,0,0,9.86,['9.86'],['combined_training_datasets_unique.sdf']
1012,CC1CCN(C(=O)c2ccc3cc(OCCC[NH+]4CCCCC4)ccc3n2)CC1,O,0,0,9.7,['9.7'],['combined_training_datasets_unique.sdf']
1013,CC1CCN(C(=O)c2ccc3cc(OCCC[NH+]4CCOCC4)ccc3c2)CC1,O,0,0,7.8,['7.8'],['combined_training_datasets_unique.sdf']
1014,CC1CCN([O-])C1(C)C,O,0,0,5.9,['5.9'],['combined_training_datasets_unique.sdf']
1015,CC1CC[C@H](O)[C@@H]([NH3+])C1,O,0,0,9.5,['9.5'],['combined_training_datasets_unique.sdf']
1016,CC1CC[NH+](C(C)C=C(c2cccs2)c2cccs2)CC1,O,0,0,8.2,['8.2'],['combined_training_datasets_unique.sdf']
1017,CC1CC[NH+](C)C(C)(C)C1,O,0,0,10.24,['10.24'],['combined_training_datasets_unique.sdf']
1018,CC1CC[NH+](CC[C@H]2CCCN2S(=O)(=O)c2cccc3ccccc23)CC1,O,0,0,10.4,['10.4'],['combined_training_datasets_unique.sdf']
1019,CC1CC[NH2+]1,O,0,0,10.96,['10.96'],['combined_training_datasets_unique.sdf']
1020,CC1CC[NH2+]C(C)(C)C1,O,0,0,11.1,['11.1'],['combined_training_datasets_unique.sdf']
1021,CC1CC[NH2+]CC1,O,0,0,10.89,['10.89'],['combined_training_datasets_unique.sdf']
1022,CC1CCc2c(N3CCC(O)CC3)c(F)cc3c(=O)c(C(=O)[O-])cn1c23,O,0,0,6.8,['6.8'],['combined_training_datasets_unique.sdf']
1023,CC1CCn2nnnc2C(C(=O)[O-])C1,O,0,0,3.2,['3.2'],['combined_training_datasets_unique.sdf']
1024,CC1CN=C(C(C)(C)C)S1,O,0,0,5.02,['5.02'],['combined_training_datasets_unique.sdf']
1025,CC1C[NH+]2CCC1CC2,O,0,0,11.29,['11.29'],['combined_training_datasets_unique.sdf']
1026,CC1N=CC[NH2+]1,O,0,0,7.86,['7.86'],['combined_training_datasets_unique.sdf']
1027,CC1NC(=[NH+]CC(F)F)Nc2c(Cl)ccc(Cl)c21,O,0,0,7.8,['7.8'],['combined_training_datasets_unique.sdf']
1028,CC1NC(=[NH+]CC(F)F)Nc2ccc(Cl)c(Cl)c21,O,0,0,8.5,['8.5'],['combined_training_datasets_unique.sdf']
1029,CC1NC(=[NH+]CC(F)F)Nc2cccc(Cl)c21,O,0,0,8.9,['8.9'],['combined_training_datasets_unique.sdf']
1030,CC1NC(=[NH+]CC(F)F)Nc2ccccc21,O,0,0,9.7,['9.7'],['combined_training_datasets_unique.sdf']
1031,CC1NOCc2ccccc21,O,0,0,3.7,['3.7'],['combined_training_datasets_unique.sdf']
1032,CC1ONCc2ccccc21,O,0,0,3.6,['3.6'],['combined_training_datasets_unique.sdf']
1033,CC1[NH+]=C(N)Nc2cccc(Cl)c21,O,0,0,9.9,['9.9'],['combined_training_datasets_unique.sdf']
1034,CC1[NH+]=C(N)Nc2ccccc21,O,0,0,10.5,['10.5'],['combined_training_datasets_unique.sdf']
1035,CC=C(C)C=C(C)C(=O)C[C@@H](O)CC1CC(=O)NC(=O)C1,O,0,0,11.2,['11.2'],['combined_training_datasets_unique.sdf']
1036,CCC#CC(=O)[O-],O,0,0,2.6,['2.6'],['combined_training_datasets_unique.sdf']
1037,CCC(=O)C(CC(C)[NH+](C)C)(c1ccccc1)c1ccccc1,O,0,0,8.723333,['8.723333'],['combined_training_datasets_unique.sdf']
1038,CCC(=O)C(CC(C)[NH+]1CCCCC1)(c1ccccc1)c1ccccc1,O,0,0,8.58,['8.58'],['combined_training_datasets_unique.sdf']
1039,CCC(=O)C(CC(C)[NH+]1CCOCC1)(c1ccccc1)c1ccccc1,O,0,0,6.89,['6.89'],['combined_training_datasets_unique.sdf']
1040,CCC(=O)C(CC[NH+](C)C)(c1ccccc1)c1ccccc1,O,0,0,9.23,['9.23'],['combined_training_datasets_unique.sdf']
1041,CCC(=O)C(CC[NH+]1CCCCC1)(c1ccccc1)c1ccccc1,O,0,0,8.86,['8.86'],['combined_training_datasets_unique.sdf']
1042,CCC(=O)C(CC[NH+]1CCOCC1)(c1ccccc1)c1ccccc1,O,0,0,6.98,['6.98'],['combined_training_datasets_unique.sdf']
1043,CCC(=O)C(C[C@H](C)[NH+]1CCOCC1)(c1ccccc1)c1ccccc1,O,0,0,6.73,['6.73'],['combined_training_datasets_unique.sdf']
1044,CCC(=O)C(c1ccccc1)(c1ccccc1)C(C)C[NH+]1CCOCC1,O,0,0,7.12,['7.12'],['combined_training_datasets_unique.sdf']
1045,CCC(=O)C(c1ccccc1)(c1ccccc1)[C@@H](C)C[NH+](C)C,O,0,0,8.07,['8.07'],['combined_training_datasets_unique.sdf']
1046,CCC(=O)C=C(O)CC,O,0,0,9.82,['9.82'],['combined_training_datasets_unique.sdf']
1047,CCC(=O)CN=O,O,0,0,8.37,['8.37'],['combined_training_datasets_unique.sdf']
1048,CCC(=O)N(c1ccccc1)C1(COC)CC[NH+](CCc2cccs2)CC1,O,0,0,7.85,['7.85'],['combined_training_datasets_unique.sdf']
1049,CCC(=O)N(c1ccccc1)C1(COC)CC[NH+](CCn2nnn(CC)c2=O)CC1,O,0,0,6.5,['6.5'],['combined_training_datasets_unique.sdf']
1050,CCC(=O)N(c1ccccc1)C1CC[NH+](CCc2ccccc2)CC1,O,0,0,8.43,['8.43'],['combined_training_datasets_unique.sdf']
1051,CCC(=O)NO,O,0,0,9.46,['9.46'],['combined_training_datasets_unique.sdf']
1052,CCC(=O)NS(=O)(=O)c1ccc(-c2c(-c3ccccc3)noc2C)cc1,O,0,0,4.9,['4.9'],['combined_training_datasets_unique.sdf']
1053,CCC(=O)OC(C)C[NH+](C)C,O,0,0,8.26,['8.26'],['combined_training_datasets_unique.sdf']
1054,CCC(=O)OCC[NH+](C)C,O,0,0,8.29,['8.29'],['combined_training_datasets_unique.sdf']
1055,CCC(=O)OO,O,0,0,8.1,['8.1'],['combined_training_datasets_unique.sdf']
1056,CCC(=O)O[C@@]1(c2ccccc2)CC[NH+](C)C[C@H]1C,O,0,0,8.66,['8.66'],['combined_training_datasets_unique.sdf']
1057,CCC(=O)O[C@](Cc1ccccc1)(c1ccccc1)[C@H](C)C[NH+](C)C,O,0,0,9.2,['9.2'],['combined_training_datasets_unique.sdf']
1058,CCC(=O)SCC[NH+](C)C,O,0,0,8.28,['8.28'],['combined_training_datasets_unique.sdf']
1059,CCC(=O)[O-],O,0,0,4.85,['4.85'],['combined_training_datasets_unique.sdf']
1060,CCC(=O)c1cc(C(=O)C(C)(C)C)n[nH]1,O,0,0,9.7,['9.7'],['combined_training_datasets_unique.sdf']
1061,CCC(=O)c1cc(C(=O)c2ccccc2)[nH]n1,O,0,0,9.14,['9.14'],['combined_training_datasets_unique.sdf']
1062,CCC(=O)c1cc(C(C)=O)n[nH]1,O,0,0,9.05,['9.05'],['combined_training_datasets_unique.sdf']
1063,CCC(=O)c1nc(C(=O)[O-])cs1,O,0,0,3.7,['3.7'],['combined_training_datasets_unique.sdf']
1064,CCC(C(=O)Nc1c(C)cccc1C)[NH+](CC)CC,O,0,0,7.91,['7.91'],['combined_training_datasets_unique.sdf']
1065,CCC(C(=O)[O-])C(=O)N1CCCCC1,O,0,0,3.86,['3.86'],['combined_training_datasets_unique.sdf']
1066,CCC(C(C)=O)=C(C)O,O,0,0,11.33,['11.33'],['combined_training_datasets_unique.sdf']
1067,CCC(C)(C)C(=O)[O-],O,0,0,5.03,['5.03'],['combined_training_datasets_unique.sdf']
1068,CCC(C)(C)Nc1ccccc1,O,0,0,6.55,['6.55'],['combined_training_datasets_unique.sdf']
1069,CCC(C)(C)[NH+](C)C(C)(C)C,O,0,0,11.9,['11.9'],['combined_training_datasets_unique.sdf']
1070,CCC(C)(C)[NH+](C)C(C)C,O,0,0,11.2,['11.2'],['combined_training_datasets_unique.sdf']
1071,CCC(C)(C)[NH2+]C(C)(C)CC,O,0,0,11.6,['11.6'],['combined_training_datasets_unique.sdf']
1072,CCC(C)(C)[NH2+]C1CCCCC1,O,0,0,11.2,['11.2'],['combined_training_datasets_unique.sdf']
1073,CCC(C)(C)[NH2+]CC(O)COc1ccccc1C(=O)CCc1ccccc1,O,0,0,9.2,['9.2'],['combined_training_datasets_unique.sdf']
1074,CCC(C)(C)[NH3+],O,0,0,10.89,['10.89'],['combined_training_datasets_unique.sdf']
1075,CCC(C)(CC)Nc1ccccc1,O,0,0,6.32,['6.32'],['combined_training_datasets_unique.sdf']
1076,CCC(C)(O)C(C(=O)[O-])c1ccc(-c2ccccc2)cc1,O,0,0,3.41,['3.41'],['combined_training_datasets_unique.sdf']
1077,CCC(C)([NH3+])CC,O,0,0,10.91,['10.91'],['combined_training_datasets_unique.sdf']
1078,CCC(C)C(=O)CC[NH+]1CCOCC1,O,0,0,7.07,['7.07'],['combined_training_datasets_unique.sdf']
1079,CCC(C)C(=O)c1ccc(OCC(=O)[O-])c(Cl)c1Cl,O,0,0,3.5,['3.5'],['combined_training_datasets_unique.sdf']
1080,CCC(C)CC(=O)[O-],O,0,0,4.84,['4.84'],['combined_training_datasets_unique.sdf']
1081,CCC(C)CN=C1Nc2cc(Cl)sc2S(=O)(=O)N1,O,0,0,8.29,['8.29'],['combined_training_datasets_unique.sdf']
1082,CCC(C)N(C)c1ccccc1,O,0,0,6.03,['6.03'],['combined_training_datasets_unique.sdf']
1083,CCC(C)Nc1ccccc1,O,0,0,5.47,['5.47'],['combined_training_datasets_unique.sdf']
1084,CCC(C)[NH+](C)C,O,0,0,10.4,['10.4'],['combined_training_datasets_unique.sdf']
1085,CCC(C)[NH2+]C(C)C,O,0,0,11.0,['11.0'],['combined_training_datasets_unique.sdf']
1086,CCC(C)[NH2+]C(C)CC,O,0,0,10.94,['10.94'],['combined_training_datasets_unique.sdf']
1087,CCC(C)[NH2+]CC(C)C,O,0,0,10.77,['10.77'],['combined_training_datasets_unique.sdf']
1088,CCC(C)[NH3+],O,0,0,10.56,['10.56'],['combined_training_datasets_unique.sdf']
1089,CCC(CC)C(=O)O[C@H]1O[C@@H](C(=O)[O-])[C@H](O)[C@@H](O)[C@@H]1O,O,0,0,3.37,['3.37'],['combined_training_datasets_unique.sdf']
1090,CCC(CC)C(=O)[O-],O,0,0,4.73,['4.73'],['combined_training_datasets_unique.sdf']
1091,CCC(CC)CNC(=O)c1cnc(Nc2cccc(Cl)c2)cc1C(C)C,O,0,0,6.02,['6.02'],['combined_training_datasets_unique.sdf']
1092,CCC(CC)Nc1cc(C)[nH+]c(Nc2c(C)cc(C)cc2C)c1C,O,0,0,9.3,['9.3'],['combined_training_datasets_unique.sdf']
1093,CCC(CC)Nc1cc(C)[nH+]c(Oc2c(C)cc(C)cc2C)c1C,O,0,0,6.9,['6.9'],['combined_training_datasets_unique.sdf']
1094,CCC(CC)Nc1ncnc2c1ncn2C1O[C@H](CO)[C@@H](O)[C@H]1O,O,0,0,3.3,['3.3'],['combined_training_datasets_unique.sdf']
1095,CCC(CC)Oc1cc(C)nc(Oc2c(C)cc(C)cc2C)c1C,O,0,0,3.55,['3.55'],['combined_training_datasets_unique.sdf']
1096,CCC(CC)[C@@H](CO)NS(=O)(=O)c1ccc(Cl)s1,O,0,0,9.6,['9.6'],['combined_training_datasets_unique.sdf']
1097,CCC(O)=CC(C)=O,O,0,0,9.36,['9.36'],['combined_training_datasets_unique.sdf']
1098,CCC(O)C(C(=O)[O-])c1ccc(-c2ccccc2)cc1,O,0,0,4.16,['4.16'],['combined_training_datasets_unique.sdf']
1099,CCC(O)C[NH+](C)CC(C)O,O,0,0,8.9,['8.9'],['combined_training_datasets_unique.sdf']
1100,CCC(O)C[NH+](C)CC(O)CC,O,0,0,9.0,['9.0'],['combined_training_datasets_unique.sdf']
1101,CCC(O)C[NH+](C)CCO,O,0,0,8.7,['8.7'],['combined_training_datasets_unique.sdf']
1102,CCC(O)C[NH+](CC(C)O)C(C)(C)C,O,0,0,9.5,['9.5'],['combined_training_datasets_unique.sdf']
1103,CCC(O)C[NH+](CC(O)CC)C(C)(C)C,O,0,0,9.6,['9.6'],['combined_training_datasets_unique.sdf']
1104,CCC(O)C[NH+](CC)CC(C)O,O,0,0,9.2,['9.2'],['combined_training_datasets_unique.sdf']
1105,CCC(O)C[NH+](CC)CC(O)CC,O,0,0,9.2,['9.2'],['combined_training_datasets_unique.sdf']
1106,CCC(O)C[NH+](CC)CCO,O,0,0,9.1,['9.1'],['combined_training_datasets_unique.sdf']
1107,CCC(O)C[NH+](CCO)C(C)(C)C,O,0,0,9.4,['9.4'],['combined_training_datasets_unique.sdf']
1108,CCC(Oc1ccccc1C)C(=O)[O-],O,0,0,3.43,['3.43'],['combined_training_datasets_unique.sdf']
1109,CCC(P)C(=O)[O-],O,0,0,4.08,['4.08'],['combined_training_datasets_unique.sdf']
1110,CCC([NH3+])(CC)CC,O,0,0,10.87,['10.87'],['combined_training_datasets_unique.sdf']
1111,CCC([NH3+])(CO)CO,O,0,0,8.8,['8.8'],['combined_training_datasets_unique.sdf']
1112,CCC([NH3+])CCCl,O,0,0,8.53,['8.53'],['combined_training_datasets_unique.sdf']
1113,CCC([NH3+])CO,O,0,0,9.53,['9.53'],['combined_training_datasets_unique.sdf']
1114,CCC/C=C(/C)C(=O)[O-],O,0,0,4.44,['4.44'],['combined_training_datasets_unique.sdf']
1115,CCC/C=C(\C)C(=O)[O-],O,0,0,5.13,['5.13'],['combined_training_datasets_unique.sdf']
1116,CCC/C=C/C(=O)[O-],O,0,0,4.71,['4.71'],['combined_training_datasets_unique.sdf']
1117,CCC/C=C1\CCC[NH+]1C,O,0,0,11.88,['11.88'],['combined_training_datasets_unique.sdf']
1118,CCC1(C)C(=O)Nc2ccc(S(=O)(=O)Nc3ccc(F)cc3F)cc2C(=O)N1C,O,0,0,7.1,['7.1'],['combined_training_datasets_unique.sdf']
1119,CCC1(C)CC(=O)NC1=O,O,0,0,9.34,['9.34'],['combined_training_datasets_unique.sdf']
1120,CCC1(C)NC(=O)c2cc(S(=O)(=O)Nc3ccc(Cl)cc3)ccc2N(C)C1=O,O,0,0,7.9,['7.9'],['combined_training_datasets_unique.sdf']
1121,CCC1(C)NC(=O)c2cc(S(=O)(=O)Nc3ccc(Cl)cc3)ccc2NC1=O,O,0,0,8.1,['8.1'],['combined_training_datasets_unique.sdf']
1122,CCC1(C)NC(=O)c2cc(S(=O)(=O)Nc3ccc(OC)cc3)ccc2NC1=O,O,0,0,5.6,['5.6'],['combined_training_datasets_unique.sdf']
1123,CCC1(C)NC(=O)c2cc(S(=O)(=O)Nc3ccccc3)ccc2NC1=O,O,0,0,8.7,['8.7'],['combined_training_datasets_unique.sdf']
1124,CCC1(C)NC(=O)c2cc(S(=O)(=O)Nc3ccccc3Cl)ccc2NC1=O,O,0,0,7.2,['7.2'],['combined_training_datasets_unique.sdf']
1125,CCC1(C)OC(=O)[N-]C1=O,O,0,0,6.0,['6.0'],['combined_training_datasets_unique.sdf']
1126,CCC1(C2CCCC2)Cc2cc(OCC(=O)[O-])c(Cl)c(Cl)c2C1=O,O,0,0,3.9,['3.9'],['combined_training_datasets_unique.sdf']
1127,CCC1(C2CCCC2)Cc2cc(OCCCC(=O)[O-])c(Cl)c(Cl)c2C1=O,O,0,0,3.8,['3.8'],['combined_training_datasets_unique.sdf']
1128,CCC1(CC)C(=O)[N-]C(=O)N(C(=O)c2ccccc2OC)C1=O,O,0,0,6.54,['6.54'],['combined_training_datasets_unique.sdf']
1129,CCC1(CC)CNc2ccc(S(=O)(=O)Nc3ccc(F)cc3F)cc2C(=O)N1,O,0,0,8.0,['8.0'],['combined_training_datasets_unique.sdf']
1130,CCC1(CC)OC(=O)[N-]C1=O,O,0,0,5.7,['5.7'],['combined_training_datasets_unique.sdf']
1131,CCC1(CC)SC(=O)[N-]C1=O,O,0,0,6.42,['6.42'],['combined_training_datasets_unique.sdf']
1132,CCC1(c2cccc(-c3cncnc3)c2)[NH+]=C(N)c2ccccc2O1,O,0,0,8.4,['8.4'],['combined_training_datasets_unique.sdf']
1133,CCC1(c2ccccc2)C(=O)NC(=S)N(C)C1=O,O,0,0,7.65,['7.65'],['combined_training_datasets_unique.sdf']
1134,CCC12C=CC(=O)C=C1c1c(cc(OCC(=O)[O-])c(Cl)c1Cl)C2,O,0,0,3.7,['3.7'],['combined_training_datasets_unique.sdf']
1135,CCC12CC3CC(CC([NH3+])(C3)C1)C2,O,0,0,10.61,['10.61'],['combined_training_datasets_unique.sdf']
1136,CCC12CCC(=O)C=C1c1c(cc(OCC(=O)OC(C)(C)C(=O)[O-])c(Cl)c1Cl)C2,O,0,0,3.8,['3.8'],['combined_training_datasets_unique.sdf']
1137,CCC12CCC(=O)C=C1c1c(cc(OCC(=O)OCC(=O)[O-])c(Cl)c1Cl)C2,O,0,0,3.8,['3.8'],['combined_training_datasets_unique.sdf']
1138,CCC12CCC(=O)C=C1c1c(cc(OCC(=O)OCC[NH+]3CCOCC3)c(Cl)c1Cl)C2,O,0,0,5.08,['5.08'],['combined_training_datasets_unique.sdf']
1139,CCC12CCC(=O)C=C1c1c(cc(OCC(=O)OCc3cccnc3)c(Cl)c1Cl)C2,O,0,0,3.32,['3.32'],['combined_training_datasets_unique.sdf']
1140,CCC12CCC(=O)C=C1c1c(cc(OCC(=O)[O-])c(Cl)c1Cl)C2,O,0,0,3.6,['3.6'],['combined_training_datasets_unique.sdf']
1141,CCC12CCC(=O)C=C1c1c(cc(OCCCC(=O)[O-])c(Cl)c1Cl)C2,O,0,0,3.7,['3.7'],['combined_training_datasets_unique.sdf']
1142,CCC12CCC(=O)C=C1c1c(cc(OCc3nn[n-]n3)c(Cl)c1Cl)C2,O,0,0,3.72,['3.72'],['combined_training_datasets_unique.sdf']
1143,CCC1=C(C)CN(C(=O)NCCc2ccc(S(=O)(=O)NC(=O)N[C@H]3CC[C@H](C)CC3)cc2)C1=O,O,0,0,6.2,['6.2'],['combined_training_datasets_unique.sdf']
1144,CCC1=C([O-])C(CC)C1=O,O,0,0,3.5,['3.5'],['combined_training_datasets_unique.sdf']
1145,CCC1=C([O-])c2ccccc2C1=O,O,0,0,6.5,['6.5'],['combined_training_datasets_unique.sdf']
1146,CCC1=NCCC1,O,0,0,7.91,['7.91'],['combined_training_datasets_unique.sdf']
1147,CCC1C2CC3C4N(C)c5ccccc5C45CC(C2[C@H]5O)[NH+]3C1O,O,0,0,6.5,['6.5'],['combined_training_datasets_unique.sdf']
1148,CCC1CCC[NH+]1C,O,0,0,9.78,['9.78'],['combined_training_datasets_unique.sdf']
1149,CCC1CSC(C(C)C)=N1,O,0,0,5.28,['5.28'],['combined_training_datasets_unique.sdf']
1150,CCC1C[NH+]1CC,O,0,0,8.19,['8.19'],['combined_training_datasets_unique.sdf']
1151,CCC1C[NH2+]1,O,0,0,5.69,['5.69'],['combined_training_datasets_unique.sdf']
1152,CCC1N=CC[NH2+]1,O,0,0,7.73,['7.73'],['combined_training_datasets_unique.sdf']
1153,CCC1OC(=O)CC(O)C(C)C(O[C@@H]2O[C@H](C)C[C@H]([NH+](C)C)[C@H]2O)C(CC=O)CC(C)C(=O)/C=C\C(C)=C/C1C,O,0,0,8.83,['8.83'],['combined_training_datasets_unique.sdf']
1154,CCCC(=N)OCC,O,0,0,7.08,['7.08'],['combined_training_datasets_unique.sdf']
1155,CCCC(=O)C(CC[NH+]1CCOCC1)(c1ccccc1)c1ccccc1,O,0,0,7.17,['7.17'],['combined_training_datasets_unique.sdf']
1156,CCCC(=O)NO,O,0,0,9.48,['9.48'],['combined_training_datasets_unique.sdf']
1157,CCCC(=O)Nc1ccc(OCC(O)C[NH2+]C(C)C)c(C(C)=O)c1,O,0,0,9.596,['9.596'],['combined_training_datasets_unique.sdf']
1158,CCCC(=O)OC(C)C[NH+](C)C,O,0,0,8.27,['8.27'],['combined_training_datasets_unique.sdf']
1159,CCCC(=O)OCC[NH+](C)C,O,0,0,8.31,['8.31'],['combined_training_datasets_unique.sdf']
1160,CCCC(=O)OO,O,0,0,8.2,['8.2'],['combined_training_datasets_unique.sdf']
1161,CCCC(=O)SCC[NH+](C)C,O,0,0,8.32,['8.32'],['combined_training_datasets_unique.sdf']
1162,CCCC(=O)[O-],O,0,0,4.8,['4.8'],['combined_training_datasets_unique.sdf']
1163,CCCC(=O)c1cc(C(C)=O)n[nH]1,O,0,0,9.28,['9.28'],['combined_training_datasets_unique.sdf']
1164,CCCC(C(=O)Nc1c(C)cccc1C)[NH+](CC)CC,O,0,0,7.89,['7.89'],['combined_training_datasets_unique.sdf']
1165,CCCC(C(CC)CO)C(CC)C(=O)[O-],O,0,0,4.78,['4.78'],['combined_training_datasets_unique.sdf']
1166,CCCC(CCC)C(=O)[O-],O,0,0,4.8,['4.8'],['combined_training_datasets_unique.sdf']
1167,CCCC(O)C(C(=O)[O-])c1ccc(-c2ccccc2)cc1,O,0,0,4.01,['4.01'],['combined_training_datasets_unique.sdf']
1168,CCCC1(C2CCCC2)Cc2cc(OCCCC(=O)[O-])c(Cl)c(Cl)c2C1=O,O,0,0,4.1,['4.1'],['combined_training_datasets_unique.sdf']
1169,CCCC1(CCC)SC(=O)[N-]C1=O,O,0,0,6.37,['6.37'],['combined_training_datasets_unique.sdf']
1170,CCCC12CC(=O)C=C1c1c(cc(OCC(=O)[O-])c(Cl)c1Cl)C2,O,0,0,3.84,['3.84'],['combined_training_datasets_unique.sdf']
1171,CCCC12CCC(=O)C(C)=C1c1c(cc(OCC(=O)[O-])c(Cl)c1Cl)C2,O,0,0,3.5,['3.5'],['combined_training_datasets_unique.sdf']
1172,CCCC12CCC(=O)C=C1c1c(cc(O)c(Cl)c1Cl)C2,O,0,0,6.18,['6.18'],['combined_training_datasets_unique.sdf']
1173,CCCC12CCC(=O)C=C1c1c(cc(OCC(=O)NCC[NH+](C)C)c(Cl)c1Cl)C2,O,0,0,7.7,['7.7'],['combined_training_datasets_unique.sdf']
1174,CCCC12CCC(=O)C=C1c1c(cc(OCC(=O)OC(C)(C)C(=O)[O-])c(Cl)c1Cl)C2,O,0,0,3.8,['3.8'],['combined_training_datasets_unique.sdf']
1175,CCCC12CCC(=O)C=C1c1c(cc(OCC(=O)OC(CC)(CC)C(=O)[O-])c(Cl)c1Cl)C2,O,0,0,3.4,['3.4'],['combined_training_datasets_unique.sdf']
1176,CCCC12CCC(=O)C=C1c1c(cc(OCC(=O)[O-])c(C)c1C)C2,O,0,0,4.3,['4.3'],['combined_training_datasets_unique.sdf']
1177,CCCC12CCC(=O)C=C1c1c(cc(OCC(=O)[O-])c(Cl)c1Cl)C2,O,0,0,3.6,['3.6'],['combined_training_datasets_unique.sdf']
1178,CCCC12CCC(=O)C=C1c1c(cc(OCCCC(=O)[O-])c(Cl)c1Cl)C2,O,0,0,3.7,['3.7'],['combined_training_datasets_unique.sdf']
1179,CCCC12CCC(=O)C=C1c1c(cc(SCC(=O)[O-])c(Cl)c1Cl)C2,O,0,0,4.7,['4.7'],['combined_training_datasets_unique.sdf']
1180,CCCC12CCC(=O)C=C1c1ccc(OCC(=O)[O-])cc1C2,O,0,0,4.05,['4.05'],['combined_training_datasets_unique.sdf']
1181,CCCC12CCC(C(C)=O)=C1c1c(cc(OCC(=O)[O-])c(Cl)c1Cl)C2,O,0,0,4.1,['4.1'],['combined_training_datasets_unique.sdf']
1182,CCCC1=NC(=O)C(c2ccccc2)=C1[O-],O,0,0,4.6,['4.6'],['combined_training_datasets_unique.sdf']
1183,CCCC1CCC[NH+]1C,O,0,0,9.78,['9.78'],['combined_training_datasets_unique.sdf']
1184,CCCCC#CC(=O)[O-],O,0,0,2.61,['2.61'],['combined_training_datasets_unique.sdf']
1185,CCCCC(=O)[O-],O,0,0,4.82,['4.82'],['combined_training_datasets_unique.sdf']
1186,CCCCC(C(=O)Nc1c(C)cccc1C)[NH+](CC)CC,O,0,0,7.81,['7.81'],['combined_training_datasets_unique.sdf']
1187,CCCCC(CC)C(=O)O[C@H]1O[C@@H](C(=O)[O-])[C@H](O)[C@@H](O)[C@@H]1O,O,0,0,3.08,['3.08'],['combined_training_datasets_unique.sdf']
1188,CCCCC(CC)C(=O)[O-],O,0,0,4.76,['4.76'],['combined_training_datasets_unique.sdf']
1189,CCCCC/C(N)=N/[NH+](C)C,O,0,0,10.4,['10.4'],['combined_training_datasets_unique.sdf']
1190,CCCCC1(C2CCCC2)Cc2cc(OCC(=O)[O-])c(Cl)c(Cl)c2C1=O,O,0,0,3.9,['3.9'],['combined_training_datasets_unique.sdf']
1191,CCCCC1(C2CCCC2)Cc2cc(OCCCC(=O)[O-])c(Cl)c(Cl)c2C1=O,O,0,0,4.4,['4.4'],['combined_training_datasets_unique.sdf']
1192,CCCCC12CCC(=O)C=C1c1c(cc(OCC(=O)[O-])c(Cl)c1Cl)C2,O,0,0,3.5,['3.5'],['combined_training_datasets_unique.sdf']
1193,CCCCC1CCC[NH+]1C,O,0,0,10.01,['10.01'],['combined_training_datasets_unique.sdf']
1194,CCCCCC(=O)NO,O,0,0,9.58,['9.58'],['combined_training_datasets_unique.sdf']
1195,CCCCCC(=O)[O-],O,0,0,4.85,['4.85'],['combined_training_datasets_unique.sdf']
1196,CCCCCC(C)(C)[NH3+],O,0,0,10.83,['10.83'],['combined_training_datasets_unique.sdf']
1197,CCCCCC(C)[NH2+]C,O,0,0,10.99,['10.99'],['combined_training_datasets_unique.sdf']
1198,CCCCCC(C)[NH3+],O,0,0,11.15,['11.15'],['combined_training_datasets_unique.sdf']
1199,CCCCCC(O)=CC(C)=O,O,0,0,9.2,['9.2'],['combined_training_datasets_unique.sdf']
1200,CCCCCC(O)CCC1CCC(=O)N1CCCCCCC(=O)[O-],O,0,0,5.25,['5.25'],['combined_training_datasets_unique.sdf']
1201,CCCCCCC(=O)NO,O,0,0,9.62,['9.62'],['combined_training_datasets_unique.sdf']
1202,CCCCCCC(=O)[O-],O,0,0,4.88,['4.88'],['combined_training_datasets_unique.sdf']
1203,CCCCCCC(C)(C)c1cc(O)c2c(c1)OC(C)(C)C1CCC(=O)CC21,O,0,0,10.6,['10.6'],['combined_training_datasets_unique.sdf']