,Solute SMILES,Solvent SMILES,Solute CAS,Solute IUPAC,pKa (avg),pKa (all),Source
2009,CN(C)C(=O)n1nc(C(C)(C)C)nc1SCC(=O)[O-],O,0,0,3.49,['3.49'],['combined_training_datasets_unique.sdf']
2010,CN(C)C(=S)NCC(=O)[O-],O,0,0,3.71,['3.71'],['combined_training_datasets_unique.sdf']
2011,CN(C)C(=S)OCC(=O)[O-],O,0,0,2.87,['2.87'],['combined_training_datasets_unique.sdf']
2012,CN(C)C(=S)SCC(=O)[O-],O,0,0,3.34,['3.34'],['combined_training_datasets_unique.sdf']
2013,CN(C)CC#N,O,0,0,4.5,['4.5'],['combined_training_datasets_unique.sdf']
2014,CN(C)CC(F)(F)F,O,0,0,4.8,['4.8'],['combined_training_datasets_unique.sdf']
2015,CN(C)CCC#N,O,0,0,7.01,['7.01'],['combined_training_datasets_unique.sdf']
2016,CN(C)N,O,0,0,7.16,['7.16'],['combined_training_datasets_unique.sdf']
2017,CN(C)N(C)C,O,0,0,6.19,['6.19'],['combined_training_datasets_unique.sdf']
2018,CN(C)S(=O)(=O)NC(=O)CCc1ccccc1,O,0,0,5.86,['5.86'],['combined_training_datasets_unique.sdf']
2019,CN(C)[C@H]1CCC[C@@H]1C#N,O,0,0,7.02,['7.02'],['combined_training_datasets_unique.sdf']
2020,CN(C)[O-],O,0,0,5.2,['5.2'],['combined_training_datasets_unique.sdf']
2021,CN(C)c1cc[n+]([O-])cc1,O,0,0,3.9,['3.9'],['combined_training_datasets_unique.sdf']
2022,CN(C)c1cc[nH+]c(N2CCc3ccccc3C2)c1,O,0,0,8.8,['8.8'],['combined_training_datasets_unique.sdf']
2023,CN(C)c1cc[nH+]cc1,O,0,0,9.7,['9.7'],['combined_training_datasets_unique.sdf']
2024,CN(C)c1ccc(/C=C/c2cc[n+]([O-])cc2)cc1,O,0,0,4.3,['4.3'],['combined_training_datasets_unique.sdf']
2025,CN(C)c1ccc(/C=C/c2nnnn2-c2ccccc2)cc1,O,0,0,3.47,['3.47'],['combined_training_datasets_unique.sdf']
2026,CN(C)c1ccc(/N=N/c2ccccc2)cc1,O,0,0,2.85,['2.85'],['combined_training_datasets_unique.sdf']
2027,CN(C)c1ccc(/N=N/c2ccccn2)cc1,O,0,0,3.25,['3.25'],['combined_training_datasets_unique.sdf']
2028,CN(C)c1ccc(Br)cc1,O,0,0,4.25,['4.25'],['combined_training_datasets_unique.sdf']
2029,CN(C)c1ccc(Cl)cc1,O,0,0,4.39,['4.39'],['combined_training_datasets_unique.sdf']
2030,CN(C)c1ccc(N2CCOCC2)cc1,O,0,0,5.7,['5.7'],['combined_training_datasets_unique.sdf']
2031,CN(C)c1ccc(N=O)cc1,O,0,0,4.54,['4.54'],['combined_training_datasets_unique.sdf']
2032,CN(C)c1ccc(NC(=O)CN=O)cc1,O,0,0,4.94,['4.94'],['combined_training_datasets_unique.sdf']
2033,CN(C)c1ccc(SC#N)cc1,O,0,0,3.3,['3.3'],['combined_training_datasets_unique.sdf']
2034,CN(C)c1ccc([N+](C)(C)C)cc1,O,0,0,2.64,['2.64'],['combined_training_datasets_unique.sdf']
2035,CN(C)c1ccc2cc3c(ccc4ccccc43)nc2c1,O,0,0,7.31,['7.31'],['combined_training_datasets_unique.sdf']
2036,CN(C)c1ccc2ccccc2c1,O,0,0,4.57,['4.57'],['combined_training_datasets_unique.sdf']
2037,CN(C)c1cccc(C#N)c1,O,0,0,2.97,['2.97'],['combined_training_datasets_unique.sdf']
2038,CN(C)c1cccc(Cl)c1,O,0,0,3.83,['3.83'],['combined_training_datasets_unique.sdf']
2039,CN(C)c1cccc([N+](C)(C)C)c1,O,0,0,2.6,['2.6'],['combined_training_datasets_unique.sdf']
2040,CN(C)c1cccc2ccccc12,O,0,0,4.83,['4.83'],['combined_training_datasets_unique.sdf']
2041,CN(C)c1ccccc1,O,0,0,5.1,['5.1'],['combined_training_datasets_unique.sdf']
2042,CN(C)c1ccccc1C(=O)[O-],O,0,0,8.46,['8.46'],['combined_training_datasets_unique.sdf']
2043,CN(C)c1cccnc1,O,0,0,6.67,['6.67'],['combined_training_datasets_unique.sdf']
2044,CN(C)c1ccncn1,O,0,0,6.35,['6.35'],['combined_training_datasets_unique.sdf']
2045,CN(C)c1nc(NN=O)nn1C,O,0,0,5.94,['5.94'],['combined_training_datasets_unique.sdf']
2046,CN(C)c1nc2c(s1)CCCC2,O,0,0,6.16,['6.16'],['combined_training_datasets_unique.sdf']
2047,CN(C)c1nc2cc3c(cc2[nH]1)CCCC3,O,0,0,7.65,['7.65'],['combined_training_datasets_unique.sdf']
2048,CN(C)c1ncc(-c2ccccc2)s1,O,0,0,4.89,['4.89'],['combined_training_datasets_unique.sdf']
2049,CN(C)c1ncc(Br)s1,O,0,0,3.66,['3.66'],['combined_training_datasets_unique.sdf']
2050,CN(C)c1ncccn1,O,0,0,3.96,['3.96'],['combined_training_datasets_unique.sdf']
2051,CN(C)c1ncnc2c1cnn2C,O,0,0,4.06,['4.06'],['combined_training_datasets_unique.sdf']
2052,CN(C)c1ncnc2c1ncn2[C@H]1O[C@@H](CO)[C@H](O)[C@@H]1O,O,0,0,3.65,['3.65'],['combined_training_datasets_unique.sdf']
2053,CN(C)c1nn[n-]n1,O,0,0,5.92,['5.92'],['combined_training_datasets_unique.sdf']
2054,CN(C)c1noc(C2=CCC[NH+](C)C2)n1,O,0,0,7.24,['7.24'],['combined_training_datasets_unique.sdf']
2055,CN(C)c1noc(C2=CCC[NH2+]C2)n1,O,0,0,8.58,['8.58'],['combined_training_datasets_unique.sdf']
2056,CN(C1=[NH+]CCN1)c1c(Br)cccc1Br,O,0,0,10.7,['10.7'],['combined_training_datasets_unique.sdf']
2057,CN(C1=[NH+]CCO1)c1ccccc1,O,0,0,8.51,['8.51'],['combined_training_datasets_unique.sdf']
2058,CN(CCC#N)CCC#N,O,0,0,4.24,['4.24'],['combined_training_datasets_unique.sdf']
2059,CN(CCC[NH+](C)C)C(=O)CN=O,O,0,0,9.255,['9.255'],['combined_training_datasets_unique.sdf']
2060,CN(CCO)c1ccccc1,O,0,0,4.89,['4.89'],['combined_training_datasets_unique.sdf']
2061,CN(CCc1ccccc1)c1ncnc2c1ncn2C1O[C@H](CO)[C@@H](O)[C@H]1O,O,0,0,3.0,['3.0'],['combined_training_datasets_unique.sdf']
2062,CN(O)C(=O)C(C)(C)C,O,0,0,9.94,['9.94'],['combined_training_datasets_unique.sdf']
2063,CN(O)C(=O)c1ccccc1,O,0,0,8.07,['8.07'],['combined_training_datasets_unique.sdf']
2064,CN(O)C(N)=O,O,0,0,9.95,['9.95'],['combined_training_datasets_unique.sdf']
2065,CN([O-])Cc1ccccc1,O,0,0,4.6,['4.6'],['combined_training_datasets_unique.sdf']
2066,CN(c1ccc(Nc2c3ccccc3nc3ccccc23)cc1)S(C)(=O)=O,O,0,0,6.95,['6.95'],['combined_training_datasets_unique.sdf']
2067,CN(c1ccccc1)C(C)(C)C,O,0,0,7.5,['7.5'],['combined_training_datasets_unique.sdf']
2068,CN(c1ccccc1)C1CCCC1,O,0,0,6.71,['6.71'],['combined_training_datasets_unique.sdf']
2069,CN(c1ccccc1)C1CCCCC1,O,0,0,6.35,['6.35'],['combined_training_datasets_unique.sdf']
2070,CN(c1ccccc1Nc1c2ccccc2nc2ccccc12)S(C)(=O)=O,O,0,0,6.97,['6.97'],['combined_training_datasets_unique.sdf']
2071,CN1C(=O)C(C)(C)NC1=S,O,0,0,10.8,['10.8'],['combined_training_datasets_unique.sdf']
2072,CN1C(=O)C(C)(c2cccc(NC(=O)c3ccc(Cl)cn3)c2)[NH+]=C1N,O,0,0,7.3,['7.3'],['combined_training_datasets_unique.sdf']
2073,CN1C(=O)C(c2ccccc2)(c2ccccc2)[NH+]=C1N,O,0,0,5.7,['5.7'],['combined_training_datasets_unique.sdf']
2074,CN1C(=O)C2(CCCCC2)NC1=S,O,0,0,11.23,['11.23'],['combined_training_datasets_unique.sdf']
2075,CN1C(=O)CC[C@H]1c1cccnc1,O,0,0,4.5,['4.5'],['combined_training_datasets_unique.sdf']
2076,CN1C(=O)C[C@@](C)(c2cccc(NC(=O)c3ccc(Cl)cn3)c2)[NH+]=C1N,O,0,0,8.4,['8.4'],['combined_training_datasets_unique.sdf']
2077,CN1C(=O)N(CC[NH+]2CCOCC2)C(=O)C(C)(C2=CCCCC2)C1=O,O,0,0,5.75,['5.75'],['combined_training_datasets_unique.sdf']
2078,CN1C(=O)NC(=O)C(C)(C2=CCCCC2)C1=O,O,0,0,7.83,['7.83'],['combined_training_datasets_unique.sdf']
2079,CN1C(=O)[C@]2([NH+]=C1N)c1cc(-c3cccnc3F)ccc1O[C@H]1CCOC[C@@H]12,O,0,0,5.8,['5.8'],['combined_training_datasets_unique.sdf']
2080,CN1C(=S)NC(=O)C12CCCCC2,O,0,0,9.25,['9.25'],['combined_training_datasets_unique.sdf']
2081,CN1C(=[NH2+])C(C)(C)c2ccccc21,O,0,0,9.25,['9.25'],['combined_training_datasets_unique.sdf']
2082,CN1C2CCC(C2)N1C,O,0,0,6.89,['6.89'],['combined_training_datasets_unique.sdf']
2083,CN1C2CCC(CC2)N1C,O,0,0,7.14,['7.14'],['combined_training_datasets_unique.sdf']
2084,CN1CC(=O)NC1=O,O,0,0,11.4,['11.4'],['combined_training_datasets_unique.sdf']
2085,CN1CC(C(=O)Nc2ccc(Cl)cc2)=C(O)C1=O,O,0,0,5.51,['5.51'],['combined_training_datasets_unique.sdf']
2086,CN1CC(C(=O)Nc2ccc(F)cc2)=C(O)C1=O,O,0,0,5.55,['5.55'],['combined_training_datasets_unique.sdf']
2087,CN1CC(C(=O)Nc2ccccc2)=C(O)C1=O,O,0,0,5.86,['5.86'],['combined_training_datasets_unique.sdf']
2088,CN1CC(C)(c2cccc(NC(=O)c3ccc(Cl)cn3)c2)[NH+]=C(N)C1=O,O,0,0,7.6,['7.6'],['combined_training_datasets_unique.sdf']
2089,CN1CC(N)=[NH+]C(C)(c2cccc(NC(=O)c3ccc(Cl)cn3)c2)C1=O,O,0,0,7.8,['7.8'],['combined_training_datasets_unique.sdf']
2090,CN1CC(O)c2cc(N=O)c(O)cc21,O,0,0,8.6,['8.6'],['combined_training_datasets_unique.sdf']
2091,CN1CC=CCN1C,O,0,0,5.7,['5.7'],['combined_training_datasets_unique.sdf']
2092,CN1CCC(=O)NC1=O,O,0,0,11.86,['11.86'],['combined_training_datasets_unique.sdf']
2093,CN1CCC=C(C#N)C1,O,0,0,6.35,['6.35'],['combined_training_datasets_unique.sdf']
2094,CN1CCCC/C1=[NH+]\c1ccc2c(c1)[C@@H](NC(=O)c1ccc(Br)cc1)[C@H](O)C2,O,0,0,9.9,['9.9'],['combined_training_datasets_unique.sdf']
2095,CN1CCCC2CC[NH+]=C21,O,0,0,11.5,['11.5'],['combined_training_datasets_unique.sdf']
2096,CN1CCCCCN1C,O,0,0,6.66,['6.66'],['combined_training_datasets_unique.sdf']
2097,CN1CCCCN1C,O,0,0,6.66,['6.66'],['combined_training_datasets_unique.sdf']
2098,CN1CCCN1C,O,0,0,6.67,['6.67'],['combined_training_datasets_unique.sdf']
2099,CN1CC[NH+](C)C(c2nc(N)no2)C1,O,0,0,6.0,['6.0'],['combined_training_datasets_unique.sdf']
2100,CN1CC[NH+](C)c2cccc3cccc1c23,O,0,0,4.62,['4.62'],['combined_training_datasets_unique.sdf']
2101,CN1CC[NH+](CC(=O)N2c3ccccc3C(=O)Nc3cccnc32)CC1,O,0,0,8.1,['8.1'],['combined_training_datasets_unique.sdf']
2102,CN1CC[NH+](Cc2ccc(OC3CN(C(=O)c4nnc(-c5ccccc5)o4)C3)cc2F)CC1,O,0,0,8.4,['8.4'],['combined_training_datasets_unique.sdf']
2103,CN1CC[NH2+]C(c2nc(N)no2)C1,O,0,0,6.2,['6.2'],['combined_training_datasets_unique.sdf']
2104,CN1CCc2cccc(c2)CCc2ccc1cc2,O,0,0,6.76,['6.76'],['combined_training_datasets_unique.sdf']
2105,CN1Cc2c(ccc3c2OCO3)-c2ccc3cc4c(cc3c21)OCO4,O,0,0,2.6,['2.6'],['combined_training_datasets_unique.sdf']
2106,CN1Cc2cc(-c3ccc(C[C@@H](C#N)NC(=O)[C@@H]4CCCC[NH2+]4)cc3)ccc2C1=O,O,0,0,7.1,['7.1'],['combined_training_datasets_unique.sdf']
2107,CN1c2ccccc2Nc2c(O)cccc21,O,0,0,9.26,['9.26'],['combined_training_datasets_unique.sdf']
2108,CN1c2ccccc2Nc2ccc(O)cc21,O,0,0,10.1,['10.1'],['combined_training_datasets_unique.sdf']
2109,CN=C1C(C)(C)c2ccccc2C1(C)C,O,0,0,7.0,['7.0'],['combined_training_datasets_unique.sdf']
2110,CN=C1CCCCC1,O,0,0,9.43,['9.43'],['combined_training_datasets_unique.sdf']
2111,CNC(=O)/C=C(/C)C(=O)[O-],O,0,0,3.23,['3.23'],['combined_training_datasets_unique.sdf']
2112,CNC(=O)/C=C(\c1ccc2nc(N)n(C(C)C)c2c1)c1cccc(F)c1F,O,0,0,6.69,['6.69'],['combined_training_datasets_unique.sdf']
2113,CNC(=O)/C=C(\c1ccc2nc(N)n(C3CCCC3)c2c1)c1ccccc1F,O,0,0,6.7,['6.7'],['combined_training_datasets_unique.sdf']
2114,CNC(=O)/C=C\C(=O)[O-],O,0,0,3.98,['3.98'],['combined_training_datasets_unique.sdf']
2115,CNC(=O)C(CC[NH+]1CCC(O)(c2ccc(Cl)cc2)CC1)(c1ccccc1)c1ccccc1,O,0,0,7.2,['7.2'],['combined_training_datasets_unique.sdf']
2116,CNC(=O)C1CCCC[NH2+]1,O,0,0,8.8,['8.8'],['combined_training_datasets_unique.sdf']
2117,CNC(=O)CNC(=O)c1[nH]ccc(=O)c1[O-],O,0,0,6.3,['6.3'],['combined_training_datasets_unique.sdf']
2118,CNC(=O)CS,O,0,0,8.05,['8.05'],['combined_training_datasets_unique.sdf']
2119,CNC(=O)CS(=O)(=O)NC(N)=O,O,0,0,4.89,['4.89'],['combined_training_datasets_unique.sdf']
2120,CNC(=O)C[NH2+]C,O,0,0,8.28,['8.28'],['combined_training_datasets_unique.sdf']
2121,CNC(=O)Nc1ccc(Cc2c3ccccc3nc3ccccc23)cc1,O,0,0,7.77,['7.77'],['combined_training_datasets_unique.sdf']
2122,CNC(=O)Nc1ccc(Nc2c3ccccc3nc3ccccc23)cc1,O,0,0,7.77,['7.77'],['combined_training_datasets_unique.sdf']
2123,CNC(=O)O[C@H]1CCc2ccc(N3CC[NH+](C4COC4)CC3)cc2[C@@H]1NC(=O)c1ccc(F)cc1,O,0,0,5.0,['5.0'],['combined_training_datasets_unique.sdf']
2124,CNC(=O)O[C@H]1COc2ccc(N3CC[NH+](C4COC4)CC3)cc2[C@@H]1NC(=O)c1ccc(F)cc1,O,0,0,5.11,['5.11'],['combined_training_datasets_unique.sdf']
2125,CNC(=O)Oc1ccc2c(c1)[C@@]1(C)CC[NH+](C)[C@H]1N2C,O,0,0,6.12,['6.12'],['combined_training_datasets_unique.sdf']
2126,CNC(=O)Oc1ccc2c(c1)[C@]1(C)CC[NH+](C)[C@@H]1N2C,O,0,0,7.9,['7.9'],['combined_training_datasets_unique.sdf']
2127,CNC(=O)[C@H](C)NC(=O)c1[nH]ccc(=O)c1[O-],O,0,0,6.0,['6.0'],['combined_training_datasets_unique.sdf']
2128,CNC(=O)[C@H](Cc1ccccc1)NC(=O)c1[nH]ccc(=O)c1[O-],O,0,0,6.1,['6.1'],['combined_training_datasets_unique.sdf']
2129,CNC(=O)c1cc(NCc2c(C)cccc2C)c2[nH]c(C)c(Br)c2[nH+]1,O,0,0,7.39,['7.39'],['combined_training_datasets_unique.sdf']
2130,CNC(=O)c1cc(NCc2c(C)cccc2C)c2[nH]c(C)cc2[nH+]1,O,0,0,7.33,['7.33'],['combined_training_datasets_unique.sdf']
2131,CNC(=O)c1cc(N[C@H]2c3ccccc3C[C@@H]2O)c2nc(C)c(C)n2c1,O,0,0,5.97,['5.97'],['combined_training_datasets_unique.sdf']
2132,CNC(=O)c1cc2c(nc(C)n2C)c2c1CC[C@@H](c1ccc(Cl)cc1C)O2,O,0,0,5.6,['5.6'],['combined_training_datasets_unique.sdf']
2133,CNC(=O)c1cc2cc(S(N)(=O)=O)sc2s1,O,0,0,5.2,['5.2'],['combined_training_datasets_unique.sdf']
2134,CNC(=O)c1ccc2c(c1)[C@@H]([NH2+]C)CC[C@H]2c1ccc(Cl)c(Cl)c1,O,0,0,8.8,['8.8'],['combined_training_datasets_unique.sdf']
2135,CNC(=O)c1ccccc1O,O,0,0,8.03,['8.03'],['combined_training_datasets_unique.sdf']
2136,CNC(=O)c1ccncc1,O,0,0,3.8,['3.8'],['combined_training_datasets_unique.sdf']
2137,CNC(=O)c1cn2c(C)c(C)nc2c2c1CCC(c1ccccc1)O2,O,0,0,6.74,['6.74'],['combined_training_datasets_unique.sdf']
2138,CNC(=O)c1cn2c(C)c(C)nc2c2c1CCC1(CCc3ccccc31)O2,O,0,0,6.8,['6.8'],['combined_training_datasets_unique.sdf']
2139,CNC(=O)c1nc(-c2nc(-c3c[nH+]c4ccccn34)c(C)nc2N)n(C)n1,O,0,0,6.2,['6.2'],['combined_training_datasets_unique.sdf']
2140,CNC(=S)N(C)CCNc1c2ccccc2[nH+]c2ccccc12,O,0,0,9.0,['9.0'],['combined_training_datasets_unique.sdf']
2141,CNC(=S)NCCSCc1nc[nH]c1C,O,0,0,6.8,['6.8'],['combined_training_datasets_unique.sdf']
2142,CNC(=S)OC(C)C,O,0,0,11.56,['11.56'],['combined_training_datasets_unique.sdf']
2143,CNC1=[NH+]c2ccc(Cl)cc2C(c2ccccc2)=[N+]([O-])C1,O,0,0,4.8,['4.8'],['combined_training_datasets_unique.sdf']
2144,CNCC#N,O,0,0,5.26,['5.26'],['combined_training_datasets_unique.sdf']
2145,CNCC(F)(F)F,O,0,0,6.0,['6.0'],['combined_training_datasets_unique.sdf']
2146,CNCCC#N,O,0,0,8.1,['8.1'],['combined_training_datasets_unique.sdf']
2147,CNCCS(=O)(=O)CC[C@@H]1OCC[C@@]2(S(=O)(=O)c3ccc(Cl)cc3)c3c(F)ccc(F)c3OC[C@@H]12,O,0,0,7.7,['7.7'],['combined_training_datasets_unique.sdf']
2148,CNN,O,0,0,7.87,['7.87'],['combined_training_datasets_unique.sdf']
2149,CNN(C)C,O,0,0,6.64,['6.64'],['combined_training_datasets_unique.sdf']
2150,CNNC,O,0,0,5.2,['5.2'],['combined_training_datasets_unique.sdf']
2151,CNOC,O,0,0,4.75,['4.75'],['combined_training_datasets_unique.sdf']
2152,CNS(=O)(=O)C(F)(F)F,O,0,0,7.56,['7.56'],['combined_training_datasets_unique.sdf']
2153,CNS(=O)(=O)Nc1cccc(Cc2c(C)c3ccc(Oc4ncccn4)cc3oc2=O)c1F,O,0,0,8.86,['8.86'],['combined_training_datasets_unique.sdf']
2154,CNS(=O)(=O)c1ccc(C(F)(F)F)cc1,O,0,0,10.7,['10.7'],['combined_training_datasets_unique.sdf']
2155,CNS(=O)(=O)c1ccc(Cl)cc1,O,0,0,10.96,['10.96'],['combined_training_datasets_unique.sdf']
2156,CN[O-],O,0,0,6.05,['6.05'],['combined_training_datasets_unique.sdf']
2157,CNc1[nH]c(=O)[n+]([C@@H]2C[C@@H](O)[C@H](CO)O2)cc1C,O,0,0,4.04,['4.04'],['combined_training_datasets_unique.sdf']
2158,CNc1c(C)cccc1C,O,0,0,6.12,['6.12'],['combined_training_datasets_unique.sdf']
2159,CNc1c[nH+]ccc1N,O,0,0,9.14,['9.14'],['combined_training_datasets_unique.sdf']
2160,CNc1cc[n+](C)c(=O)[nH]1,O,0,0,4.47,['4.47'],['combined_training_datasets_unique.sdf']
2161,CNc1cc[n+]([O-])cc1,O,0,0,3.85,['3.85'],['combined_training_datasets_unique.sdf']
2162,CNc1cc[nH+]c(N2CCc3ccccc3C2)c1,O,0,0,8.85,['8.85'],['combined_training_datasets_unique.sdf']
2163,CNc1ccc(C)cc1,O,0,0,5.36,['5.36'],['combined_training_datasets_unique.sdf']
2164,CNc1ccc(OC)cc1,O,0,0,5.93,['5.93'],['combined_training_datasets_unique.sdf']
2165,CNc1cccc(C)c1,O,0,0,4.94,['4.94'],['combined_training_datasets_unique.sdf']
2166,CNc1cccc2ccccc12,O,0,0,3.7,['3.7'],['combined_training_datasets_unique.sdf']
2167,CNc1ccccc1,O,0,0,4.8,['4.8'],['combined_training_datasets_unique.sdf']
2168,CNc1ccccc1C,O,0,0,4.59,['4.59'],['combined_training_datasets_unique.sdf']
2169,CNc1ccccn1,O,0,0,7.13,['7.13'],['combined_training_datasets_unique.sdf']
2170,CNc1cccnc1,O,0,0,6.41,['6.41'],['combined_training_datasets_unique.sdf']
2171,CNc1ccncn1,O,0,0,6.12,['6.12'],['combined_training_datasets_unique.sdf']
2172,CNc1cnc2ccccc2n1,O,0,0,4.1,['4.1'],['combined_training_datasets_unique.sdf']
2173,CNc1nc(C(F)(F)c2ccccc2)nc2c1CC[NH2+]CC2,O,0,0,8.7,['8.7'],['combined_training_datasets_unique.sdf']
2174,CNc1nc(C)nc2c1cnn2C,O,0,0,5.0,['5.0'],['combined_training_datasets_unique.sdf']
2175,CNc1ncccn1,O,0,0,3.82,['3.82'],['combined_training_datasets_unique.sdf']
2176,CNc1nccn2cc(-c3ccc(S(C)=O)cc3OC)[nH+]c12,O,0,0,5.36,['5.36'],['combined_training_datasets_unique.sdf']
2177,CNc1ncnc2c1ccn2Cc1ccccc1F,O,0,0,5.56,['5.56'],['combined_training_datasets_unique.sdf']
2178,CNc1ncnc2c1cnn2C,O,0,0,4.24,['4.24'],['combined_training_datasets_unique.sdf']
2179,CNc1ncnc2c1cnn2Cc1ccccc1F,O,0,0,4.4,['4.4'],['combined_training_datasets_unique.sdf']
2180,CNc1ncnc2c1ncn2Cc1ccccc1F,O,0,0,3.88,['3.88'],['combined_training_datasets_unique.sdf']
2181,CNc1nn[n-]n1,O,0,0,6.06,['6.06'],['combined_training_datasets_unique.sdf']
2182,CNc1nnc(S(N)(=O)=O)s1,O,0,0,7.8,['7.8'],['combined_training_datasets_unique.sdf']
2183,CO/C(C)=C\C(=O)[O-],O,0,0,5.81,['5.81'],['combined_training_datasets_unique.sdf']
2184,CO/N=C(\C#N)C1=CCC[NH+](C)C1,O,0,0,7.65,['7.65'],['combined_training_datasets_unique.sdf']
2185,CO/N=C(\C#N)C1=CCC[NH2+]C1,O,0,0,8.6,['8.6'],['combined_training_datasets_unique.sdf']
2186,CO/N=C(\C#N)C1C[NH+]2CCC1CC2,O,0,0,8.96,['8.96'],['combined_training_datasets_unique.sdf']
2187,CO/N=C(\C(=O)N=C1C(=O)N2C(C(=O)[O-])C(COC(C)=O)CS[C@H]12)c1csc(N)n1,O,0,0,3.75,['3.75'],['combined_training_datasets_unique.sdf']
2188,CO/N=C(\F)C1=CCC[NH+](C)C1,O,0,0,7.39,['7.39'],['combined_training_datasets_unique.sdf']
2189,COC(=O)/C=C(/C)O,O,0,0,9.48,['9.48'],['combined_training_datasets_unique.sdf']
2190,COC(=O)C(CCCC[NH3+])NC(=O)OC(C)(C)C,O,0,0,10.79,['10.79'],['combined_training_datasets_unique.sdf']
2191,COC(=O)C([NH3+])CCCCNC(=O)OC(C)(C)C,O,0,0,8.9,['8.9'],['combined_training_datasets_unique.sdf']
2192,COC(=O)C([NH3+])Cc1ccccc1,O,0,0,7.0,['7.0'],['combined_training_datasets_unique.sdf']
2193,COC(=O)C(c1ccccc1)C1CCCC[NH2+]1,O,0,0,9.24,['9.24'],['combined_training_datasets_unique.sdf']
2194,COC(=O)C1=CCC[NH+](C)C1,O,0,0,7.675,['7.675'],['combined_training_datasets_unique.sdf']
2195,COC(=O)C1=CCC[NH2+]C1,O,0,0,8.7,['8.7'],['combined_training_datasets_unique.sdf']
2196,COC(=O)C1C(C[NH+]2CCOC[C@H]2C(=O)[O-])=NC(c2nccs2)=N[C@H]1c1ccc(F)c(F)c1C,O,0,0,5.7,['5.7'],['combined_training_datasets_unique.sdf']
2197,COC(=O)C1C(C[NH+]2CCOC[C@H]2C(=O)[O-])=NC(c2nccs2)=N[C@H]1c1ccc(F)cc1Cl,O,0,0,5.8,['5.8'],['combined_training_datasets_unique.sdf']
2198,COC(=O)C1CCC[NH+](C)C1,O,0,0,8.45,['8.45'],['combined_training_datasets_unique.sdf']
2199,COC(=O)C1C[NH+]2CCC1CC2,O,0,0,9.4,['9.4'],['combined_training_datasets_unique.sdf']
2200,COC(=O)C1c2ccccc2-c2ccccc21,O,0,0,11.52,['11.52'],['combined_training_datasets_unique.sdf']
2201,COC(=O)C=C(C)O,O,0,0,10.6,['10.6'],['combined_training_datasets_unique.sdf']
2202,COC(=O)CC1c2ccc(Cl)cc2NC(=O)C1C#N,O,0,0,10.2,['10.2'],['combined_training_datasets_unique.sdf']
2203,COC(=O)CC1c2ccc(Cl)cc2NC(=O)C1S(=O)(=O)c1ccccc1,O,0,0,10.8,['10.8'],['combined_training_datasets_unique.sdf']
2204,COC(=O)CCCc1cnc[nH]1,O,0,0,7.33,['7.33'],['combined_training_datasets_unique.sdf']
2205,COC(=O)CCS,O,0,0,9.33,['9.33'],['combined_training_datasets_unique.sdf']
2206,COC(=O)CCc1ccc(OCC(O)C[NH2+]C(C)C)cc1,O,0,0,9.5,['9.5'],['combined_training_datasets_unique.sdf']
2207,COC(=O)CS,O,0,0,7.57,['7.57'],['combined_training_datasets_unique.sdf']
2208,COC(=O)C[C@@H]1[C@@H](C(=O)[O-])[NH2+]C[C@H]1C(C)O,O,0,0,9.41,['9.41'],['combined_training_datasets_unique.sdf']
2209,COC(=O)C[NH3+],O,0,0,7.685,['7.685'],['combined_training_datasets_unique.sdf']
2210,COC(=O)Cc1ccccc1N,O,0,0,3.71,['3.71'],['combined_training_datasets_unique.sdf']
2211,COC(=O)Cc1csc(=N)n1C,O,0,0,9.77,['9.77'],['combined_training_datasets_unique.sdf']
2212,COC(=O)Cc1csc(N)n1,O,0,0,4.83,['4.83'],['combined_training_datasets_unique.sdf']
2213,COC(=O)Cn1ccnc1,O,0,0,7.1,['7.1'],['combined_training_datasets_unique.sdf']
2214,COC(=O)N(C)CC(=O)Oc1ccc(N(C)C)cc1,O,0,0,5.03,['5.03'],['combined_training_datasets_unique.sdf']
2215,COC(=O)N1CCc2c(o[nH]c2=O)C1,O,0,0,5.3,['5.3'],['combined_training_datasets_unique.sdf']
2216,COC(=O)N1CCc2c(s[nH]c2=O)C1,O,0,0,7.3,['7.3'],['combined_training_datasets_unique.sdf']
2217,COC(=O)N1CCc2s[nH]c(=O)c2C1,O,0,0,7.4,['7.4'],['combined_training_datasets_unique.sdf']
2218,COC(=O)N1CCc2s[nH]c(=O)c2CC1,O,0,0,7.6,['7.6'],['combined_training_datasets_unique.sdf']