,Solute SMILES,Solvent SMILES,Solute CAS,Solute IUPAC,pKa (avg),pKa (all),Source
5790,[NH3+]Cc1ccc(Cl)cc1,O,0,0,9.24,['9.24'],['combined_training_datasets_unique.sdf']
5791,[NH3+]Cc1ccccc1,O,0,0,9.48,['9.48'],['combined_training_datasets_unique.sdf']
5792,[NH3+][C@@H]1CCCC[C@@H]1O,O,0,0,9.72,['9.72'],['combined_training_datasets_unique.sdf']
5793,[NH3+][C@@H]1CCC[C@@H]1O,O,0,0,9.7,['9.7'],['combined_training_datasets_unique.sdf']
5794,[NH3+][C@@H]1CCC[C@H](O)C1,O,0,0,10.05,['10.05'],['combined_training_datasets_unique.sdf']
5795,[NH3+][C@@H]1C[C@@H]1c1ccccc1,O,0,0,8.47,['8.47'],['combined_training_datasets_unique.sdf']
5796,[NH3+][C@@H]1C[C@H]1c1ccccc1,O,0,0,8.2,['8.2'],['combined_training_datasets_unique.sdf']
5797,[NH3+][C@@H]1C[C@]1(F)c1ccc(C(F)(F)F)cc1,O,0,0,6.6,['6.6'],['combined_training_datasets_unique.sdf']
5798,[NH3+][C@@H]1C[C@]1(F)c1ccc(Cl)cc1,O,0,0,6.81,['6.81'],['combined_training_datasets_unique.sdf']
5799,[NH3+][C@@H]1C[C@]1(F)c1ccc(F)cc1,O,0,0,6.88,['6.88'],['combined_training_datasets_unique.sdf']
5800,[NH3+][C@@H]1C[C@]1(F)c1ccccc1,O,0,0,6.98,['6.98'],['combined_training_datasets_unique.sdf']
5801,[NH3+][C@H](COCc1cc(C(F)(F)F)cc(C(F)(F)F)c1)c1ccccc1,O,0,0,7.93,['7.93'],['combined_training_datasets_unique.sdf']
5802,[NH3+][C@H](c1ccccc1)[C@H](O)c1ccccc1,O,0,0,10.46,['10.46'],['combined_training_datasets_unique.sdf']
5803,[NH3+][C@H]1CCCCC[C@@H]1O,O,0,0,9.35,['9.35'],['combined_training_datasets_unique.sdf']
5804,[NH3+][C@H]1CCCC[C@@H]1O,O,0,0,9.35,['9.35'],['combined_training_datasets_unique.sdf']
5805,[NH3+][C@H]1CCC[C@@H]1O,O,0,0,9.28,['9.28'],['combined_training_datasets_unique.sdf']
5806,[NH3+][C@H]1CCC[C@H](O)C1,O,0,0,10.1,['10.1'],['combined_training_datasets_unique.sdf']
5807,[NH3+][C@H]1CCc2ccccc21,O,0,0,9.21,['9.21'],['combined_training_datasets_unique.sdf']
5808,[NH3+][C@H]1C[C@@H]1c1ccccc1,O,0,0,8.5,['8.5'],['combined_training_datasets_unique.sdf']
5809,[NH3+][C@H]1C[C@@]1(F)c1ccccc1,O,0,0,7.2,['7.2'],['combined_training_datasets_unique.sdf']
5810,[NH3+][C@H]1C[C@]1(F)c1ccc(C(F)(F)F)cc1,O,0,0,7.0,['7.0'],['combined_training_datasets_unique.sdf']
5811,[NH3+][C@H]1C[C@]1(F)c1ccc(Cl)cc1,O,0,0,7.19,['7.19'],['combined_training_datasets_unique.sdf']
5812,[NH3+][C@H]1C[C@]1(F)c1ccc(F)cc1,O,0,0,7.31,['7.31'],['combined_training_datasets_unique.sdf']
5813,[NH3+][C@H]1C[C@]1(F)c1ccccc1,O,0,0,7.35,['7.35'],['combined_training_datasets_unique.sdf']
5814,[NH3+][C@]1(c2ccccc2)C[C@]1(F)c1ccccc1,O,0,0,5.8,['5.8'],['combined_training_datasets_unique.sdf']
5815,[O-]Nc1cc[n+]([O-])c2ccccc12,O,0,0,3.89,['3.89'],['combined_training_datasets_unique.sdf']
5816,[O-]Nc1ccc(Cl)cc1,O,0,0,2.58,['2.58'],['combined_training_datasets_unique.sdf']
5817,[O-]Nc1ccnc2ccccc12,O,0,0,6.76,['6.76'],['combined_training_datasets_unique.sdf']
5818,[O-]Nc1ncnc2nc[nH]c12,O,0,0,9.83,['9.83'],['combined_training_datasets_unique.sdf']
5819,[O-][n+]1ccc(O)cc1,O,0,0,5.76,['5.76'],['combined_training_datasets_unique.sdf']
5820,[O-][n+]1cccc(O)c1,O,0,0,6.4,['6.4'],['combined_training_datasets_unique.sdf']
5821,[O-][n+]1ccccc1O,O,0,0,5.98,['5.98'],['combined_training_datasets_unique.sdf']
5822,[O-][n+]1cnc(NCc2ccccc2)c2nc[nH]c21,O,0,0,7.27,['7.27'],['combined_training_datasets_unique.sdf']
5823,[O-][n+]1cnc2[nH]cnc2c1NCc1ccccc1,O,0,0,8.22,['8.22'],['combined_training_datasets_unique.sdf']
5824,[O-]c1c(Br)cccc1Br,O,0,0,6.6,['6.6'],['combined_training_datasets_unique.sdf']
5825,[O-]c1c(Cl)c(Cl)c(Cl)c(Cl)c1Cl,O,0,0,5.0,['5.0'],['combined_training_datasets_unique.sdf']
5826,[O-]c1c(Cl)cc(Cl)c(Cl)c1Cl,O,0,0,5.7,['5.7'],['combined_training_datasets_unique.sdf']
5827,[O-]c1c(Cl)cc(Cl)cc1Cl,O,0,0,6.2,['6.2'],['combined_training_datasets_unique.sdf']
5828,[O-]c1c(Cl)ccc(Cl)c1Cl,O,0,0,6.12,['6.12'],['combined_training_datasets_unique.sdf']
5829,[O-]c1c(Cl)cccc1Cl,O,0,0,6.975,['6.975'],['combined_training_datasets_unique.sdf']
5830,[O-]c1c(F)cc(-c2ccc(O[C@H]3O[C@H](CO)[C@@H](O)[C@H](O)[C@@H]3O)cc2)cc1F,O,0,0,6.5,['6.5'],['combined_training_datasets_unique.sdf']
5831,[O-]c1c(F)cc(Cc2ccccc2)cc1F,O,0,0,7.19,['7.19'],['combined_training_datasets_unique.sdf']
5832,[O-]c1c(F)ccc(Cc2ccccc2)c1F,O,0,0,7.05,['7.05'],['combined_training_datasets_unique.sdf']
5833,[O-]c1c(F)cccc1F,O,0,0,7.12,['7.12'],['combined_training_datasets_unique.sdf']
5834,[S-]c1ccc(Br)cc1,O,0,0,5.8,['5.8'],['combined_training_datasets_unique.sdf']
5835,[S-]c1ccc(Cl)c(Cl)c1,O,0,0,5.48,['5.48'],['combined_training_datasets_unique.sdf']
5836,[S-]c1ccc(Cl)cc1,O,0,0,5.82,['5.82'],['combined_training_datasets_unique.sdf']
5837,[S-]c1cccc(Cl)c1,O,0,0,5.76,['5.76'],['combined_training_datasets_unique.sdf']
5838,[S-]c1ccccc1,O,0,0,6.485,['6.485'],['combined_training_datasets_unique.sdf']
5839,c1c[nH]cn1,O,0,0,7.023333,['7.023333'],['combined_training_datasets_unique.sdf']
5840,c1cc(-c2ccoc2)ccn1,O,0,0,5.72,['5.72'],['combined_training_datasets_unique.sdf']
5841,c1cc(C2CCC3(CC2)CCC2(OC3)C3CC4CC(C3)CC2C4)ccc1OCC[NH+]1CCOCC1,O,0,0,6.82,['6.82'],['combined_training_datasets_unique.sdf']
5842,c1cc(C2CCC3(CC2)CCC2(OO3)C3CC4CC(C3)CC2C4)ccc1OCC[NH+]1CCOCC1,O,0,0,6.81,['6.81'],['combined_training_datasets_unique.sdf']
5843,c1cc(CC2CCC[NH2+]C2)c2ccoc2c1,O,0,0,9.8,['9.8'],['combined_training_datasets_unique.sdf']
5844,c1cc(N2CCOCC2)cc[nH+]1,O,0,0,8.79,['8.79'],['combined_training_datasets_unique.sdf']
5845,c1cc(N2CCOCC2)ccc1N1CCCCC1,O,0,0,6.7,['6.7'],['combined_training_datasets_unique.sdf']
5846,c1cc(N2CCOCC2)ccc1N1CCOCC1,O,0,0,4.2,['4.2'],['combined_training_datasets_unique.sdf']
5847,c1cc([C@H]2CC[C@@]3(CC2)C[C@@]2(OO3)C3CC4CC(C3)CC2C4)ccc1OCC[NH+]1CCOCC1,O,0,0,6.82,['6.82'],['combined_training_datasets_unique.sdf']
5848,c1cc([C@H]2CC[C@]3(CC2)OO[C@]2(O3)C3CC4CC(C3)CC2C4)ccc1OCC[NH+]1CCOCC1,O,0,0,6.81,['6.81'],['combined_training_datasets_unique.sdf']
5849,c1cc2c(cc1C[NH+]1CC3(COC3)C1)OCO2,O,0,0,8.0,['8.0'],['combined_training_datasets_unique.sdf']
5850,c1cc2c(cc1C[NH+]1CC3CC(C1)O3)OCO2,O,0,0,7.1,['7.1'],['combined_training_datasets_unique.sdf']
5851,c1cc2c(cc1C[NH+]1CCC1)OCO2,O,0,0,9.5,['9.5'],['combined_training_datasets_unique.sdf']
5852,c1cc2c(cc1C[NH+]1CCC13COC3)OCO2,O,0,0,6.2,['6.2'],['combined_training_datasets_unique.sdf']
5853,c1cc2c(cc1C[NH+]1CCC3(CC1)COC3)OCO2,O,0,0,8.3,['8.3'],['combined_training_datasets_unique.sdf']
5854,c1cc2c(cc1C[NH+]1CCC3(COC3)C1)OCO2,O,0,0,8.1,['8.1'],['combined_training_datasets_unique.sdf']
5855,c1cc2c(cc1C[NH+]1CCCC1)OCO2,O,0,0,9.7,['9.7'],['combined_training_datasets_unique.sdf']
5856,c1cc2c(cc1C[NH+]1CCCC13COC3)OCO2,O,0,0,6.3,['6.3'],['combined_training_datasets_unique.sdf']
5857,c1cc2c(cc1C[NH+]1CCCC3(COC3)C1)OCO2,O,0,0,7.9,['7.9'],['combined_training_datasets_unique.sdf']
5858,c1cc2c(cc1C[NH+]1CCCCC1)OCO2,O,0,0,9.6,['9.6'],['combined_training_datasets_unique.sdf']
5859,c1cc2c(cc1C[NH+]1CCCCC13COC3)OCO2,O,0,0,7.0,['7.0'],['combined_training_datasets_unique.sdf']
5860,c1cc2c(cc1C[NH+]1CCOCC1)OCO2,O,0,0,7.0,['7.0'],['combined_training_datasets_unique.sdf']
5861,c1cc2c(cn1)CCCC2,O,0,0,6.65,['6.65'],['combined_training_datasets_unique.sdf']
5862,c1cc2c(nn1)CCCC2,O,0,0,4.3,['4.3'],['combined_training_datasets_unique.sdf']
5863,c1cc2nccnc2cn1,O,0,0,2.5,['2.5'],['combined_training_datasets_unique.sdf']
5864,c1ccc(-c2cc3c(-c4ccccc4)ccnc3c3ncccc23)cc1,O,0,0,4.69,['4.69'],['combined_training_datasets_unique.sdf']
5865,c1ccc(-c2cc3cccnc3c3ncccc23)cc1,O,0,0,4.72,['4.72'],['combined_training_datasets_unique.sdf']
5866,c1ccc(-c2ccc3[nH+]c(CN4CCOCC4)cn3n2)cc1,O,0,0,6.25,['6.25'],['combined_training_datasets_unique.sdf']
5867,c1ccc(-c2ccc3ccc4cccnc4c3n2)cc1,O,0,0,4.9,['4.9'],['combined_training_datasets_unique.sdf']
5868,c1ccc(-c2ccc3nccn3n2)cc1,O,0,0,4.71,['4.71'],['combined_training_datasets_unique.sdf']
5869,c1ccc(-c2ccccn2)cc1,O,0,0,4.48,['4.48'],['combined_training_datasets_unique.sdf']
5870,c1ccc(-c2ccccn2)nc1,O,0,0,4.42,['4.42'],['combined_training_datasets_unique.sdf']
5871,c1ccc(-c2ccco2)nc1,O,0,0,4.18,['4.18'],['combined_training_datasets_unique.sdf']
5872,c1ccc(-c2ccnc3c2ccc2c(-c4ccccc4)ccnc23)cc1,O,0,0,4.84,['4.84'],['combined_training_datasets_unique.sdf']
5873,c1ccc(-c2ccnc3c2ccc2cccnc23)cc1,O,0,0,4.9,['4.9'],['combined_training_datasets_unique.sdf']
5874,c1ccc(-c2ccncc2)cc1,O,0,0,5.3,['5.3'],['combined_training_datasets_unique.sdf']
5875,c1ccc(-c2ccoc2)nc1,O,0,0,4.65,['4.65'],['combined_training_datasets_unique.sdf']
5876,c1ccc(-c2cn[nH]n2)cc1,O,0,0,8.62,['8.62'],['combined_training_datasets_unique.sdf']
5877,c1ccc(-c2cnc3c(ccc4cccnc43)c2)cc1,O,0,0,4.82,['4.82'],['combined_training_datasets_unique.sdf']
5878,c1ccc(-c2cnc[nH]2)cc1,O,0,0,6.05,['6.05'],['combined_training_datasets_unique.sdf']
5879,c1ccc(-c2ncc[nH]2)cc1,O,0,0,6.45,['6.45'],['combined_training_datasets_unique.sdf']
5880,c1ccc(-c2ncn[nH]2)cc1,O,0,0,9.29,['9.29'],['combined_training_datasets_unique.sdf']
5881,c1ccc(-c2nn[n-]n2)cc1,O,0,0,4.363333,['4.363333'],['combined_training_datasets_unique.sdf']
5882,c1ccc(-c2nnc(CN3CC[NH+](Cc4nc5ccccc5s4)CC3)o2)cc1,O,0,0,4.4,['4.4'],['combined_training_datasets_unique.sdf']
5883,c1ccc(-c2noc(CN3CC[NH+](Cc4nc5ccccc5s4)CC3)n2)cc1,O,0,0,4.4,['4.4'],['combined_training_datasets_unique.sdf']
5884,c1ccc(-n2ccnc2)cc1,O,0,0,5.1,['5.1'],['combined_training_datasets_unique.sdf']
5885,c1ccc(C(CC[NH+]2CCCCC2)c2ccccc2)cc1,O,0,0,8.96,['8.96'],['combined_training_datasets_unique.sdf']
5886,c1ccc(C(CC[NH+]2CCOCC2)c2ccccc2)cc1,O,0,0,7.25,['7.25'],['combined_training_datasets_unique.sdf']
5887,c1ccc(C(OCC[NH+]2CCCCC2)c2ccccc2)cc1,O,0,0,8.03,['8.03'],['combined_training_datasets_unique.sdf']
5888,c1ccc(C2([NH+]3CCCCC3)CCCCC2)cc1,O,0,0,9.97,['9.97'],['combined_training_datasets_unique.sdf']
5889,c1ccc(C2(c3ccccc3)CC2C2=[NH+]CCN2)cc1,O,0,0,10.3,['10.3'],['combined_training_datasets_unique.sdf']
5890,c1ccc(C2=NCCC2)cc1,O,0,0,7.2,['7.2'],['combined_training_datasets_unique.sdf']
5891,c1ccc(C2=[NH+]CCN2)nc1,O,0,0,8.98,['8.98'],['combined_training_datasets_unique.sdf']
5892,c1ccc(C2CCC[NH2+]2)cc1,O,0,0,9.6,['9.6'],['combined_training_datasets_unique.sdf']
5893,c1ccc(C2C[NH+]3CCC2CC3)cc1,O,0,0,10.2,['10.2'],['combined_training_datasets_unique.sdf']
5894,c1ccc(C2C[NH2+]2)cc1,O,0,0,6.47,['6.47'],['combined_training_datasets_unique.sdf']
5895,c1ccc(C2[NH2+]CCS2)cc1,O,0,0,5.2,['5.2'],['combined_training_datasets_unique.sdf']
5896,c1ccc(CC2=NCCC2)cc1,O,0,0,6.9,['6.9'],['combined_training_datasets_unique.sdf']
5897,c1ccc(CC2CCC[NH2+]2)cc1,O,0,0,10.35,['10.35'],['combined_training_datasets_unique.sdf']
5898,c1ccc(CC2CC[NH+](CCCc3c[nH]c4ccc(-n5cnnc5)cc34)CC2)cc1,O,0,0,9.7,['9.7'],['combined_training_datasets_unique.sdf']
5899,c1ccc(CCc2nn[n-]n2)cc1,O,0,0,5.09,['5.09'],['combined_training_datasets_unique.sdf']
5900,c1ccc(CN(CC2=[NH+]CCN2)c2ccccc2)cc1,O,0,0,10.08,['10.08'],['combined_training_datasets_unique.sdf']
5901,c1ccc(CN2CC[NH+](Cc3nc(-c4ccccc4)no3)CC2)cc1,O,0,0,6.7,['6.7'],['combined_training_datasets_unique.sdf']
5902,c1ccc(CN2CC[NH+](Cc3nnc(-c4ccccc4)o3)CC2)cc1,O,0,0,6.7,['6.7'],['combined_training_datasets_unique.sdf']
5903,c1ccc(CNc2cc[nH+]c(N3CCc4ccccc4C3)c2)cc1,O,0,0,8.6,['8.6'],['combined_training_datasets_unique.sdf']
5904,c1ccc(CNc2nccs2)cc1,O,0,0,5.15,['5.15'],['combined_training_datasets_unique.sdf']
5905,c1ccc(COc2noc3c2C[NH2+]CC3)cc1,O,0,0,7.5,['7.5'],['combined_training_datasets_unique.sdf']
5906,c1ccc(CSc2ccccn2)cc1,O,0,0,3.23,['3.23'],['combined_training_datasets_unique.sdf']
5907,c1ccc(CSc2ccncc2)cc1,O,0,0,5.41,['5.41'],['combined_training_datasets_unique.sdf']
5908,c1ccc(CSc2cn[nH]n2)cc1,O,0,0,8.2,['8.2'],['combined_training_datasets_unique.sdf']
5909,c1ccc(CSc2ncn[nH]2)cc1,O,0,0,9.5,['9.5'],['combined_training_datasets_unique.sdf']
5910,c1ccc(C[NH+](CC2CO2)CC2CO2)cc1,O,0,0,5.75,['5.75'],['combined_training_datasets_unique.sdf']
5911,c1ccc(C[NH+](Cc2ccccc2)Cc2ccccc2)cc1,O,0,0,7.44,['7.44'],['combined_training_datasets_unique.sdf']
5912,c1ccc(C[NH+]2CCCC2)cc1,O,0,0,9.51,['9.51'],['combined_training_datasets_unique.sdf']
5913,c1ccc(C[NH2+]C(CC2CCCCC2)CC2CCCCC2)cc1,O,0,0,7.7,['7.7'],['combined_training_datasets_unique.sdf']
5914,c1ccc(C[NH2+]C23OC4C5C6CC(C7C6C4C72)C53)cc1,O,0,0,7.07,['7.07'],['combined_training_datasets_unique.sdf']
5915,c1ccc(Cc2c3ccccc3nc3ccccc23)cc1,O,0,0,7.46,['7.46'],['combined_training_datasets_unique.sdf']
5916,c1ccc(Cc2ccccn2)cc1,O,0,0,5.13,['5.13'],['combined_training_datasets_unique.sdf']
5917,c1ccc(Cc2ncc3c(n2)CC[NH2+]CC3)cc1,O,0,0,8.5,['8.5'],['combined_training_datasets_unique.sdf']
5918,c1ccc(Cn2ccnc2)cc1,O,0,0,6.66,['6.66'],['combined_training_datasets_unique.sdf']
5919,c1ccc(N2CCCC2)cc1,O,0,0,4.3,['4.3'],['combined_training_datasets_unique.sdf']
5920,c1ccc(N2CCc3ccccc3C2)nc1,O,0,0,6.4,['6.4'],['combined_training_datasets_unique.sdf']
5921,c1ccc(NC(Nc2ccccc2)=[NH+]c2ccccc2)cc1,O,0,0,9.1,['9.1'],['combined_training_datasets_unique.sdf']
5922,c1ccc(NC2=[NH+]CCCO2)cc1,O,0,0,9.33,['9.33'],['combined_training_datasets_unique.sdf']
5923,c1ccc(NC2=[NH+]CCN2)cc1,O,0,0,9.915,['9.915'],['combined_training_datasets_unique.sdf']
5924,c1ccc(NC2CCCC2)cc1,O,0,0,5.3,['5.3'],['combined_training_datasets_unique.sdf']
5925,c1ccc(NC2CCCCC2)cc1,O,0,0,5.6,['5.6'],['combined_training_datasets_unique.sdf']
5926,c1ccc(Nc2c3ccccc3nc3ccccc23)cc1,O,0,0,7.46,['7.46'],['combined_training_datasets_unique.sdf']
5927,c1ccc(Nc2nccs2)cc1,O,0,0,4.33,['4.33'],['combined_training_datasets_unique.sdf']
5928,c1ccc(Nc2nn[n-]n2)cc1,O,0,0,6.3,['6.3'],['combined_training_datasets_unique.sdf']
5929,c1ccc(Oc2cccnc2)cc1,O,0,0,4.24,['4.24'],['combined_training_datasets_unique.sdf']
5930,c1ccc(Oc2ccnc3c2ccc2c(Oc4ccccc4)ccnc23)cc1,O,0,0,5.34,['5.34'],['combined_training_datasets_unique.sdf']
5931,c1ccc(Oc2ccncc2)cc1,O,0,0,6.16,['6.16'],['combined_training_datasets_unique.sdf']
5932,c1ccc([C@@H]2C[NH+]3CCC[C@@H]3c3ccccc32)cc1,O,0,0,9.12,['9.12'],['combined_training_datasets_unique.sdf']
5933,c1ccc([P+](CCCCc2nn[n-]n2)(c2ccccc2)c2ccccc2)cc1,O,0,0,4.93,['4.93'],['combined_training_datasets_unique.sdf']
5934,c1ccc([P+](c2ccccc2)(c2ccccc2)C2c3ccccc3-c3ccccc32)cc1,O,0,0,8.99,['8.99'],['combined_training_datasets_unique.sdf']
5935,c1ccc2[nH]cnc2c1,O,0,0,5.51,['5.51'],['combined_training_datasets_unique.sdf']
5936,c1ccc2c(CC3=[NH+]CCN3)cccc2c1,O,0,0,10.35,['10.35'],['combined_training_datasets_unique.sdf']
5937,c1ccc2c(c1)C1CCN2C1,O,0,0,7.1,['7.1'],['combined_training_datasets_unique.sdf']
5938,c1ccc2c(c1)C1CCN2CC1,O,0,0,7.79,['7.79'],['combined_training_datasets_unique.sdf']
5939,c1ccc2c(c1)C1c3ccccc3C2C2C[NH2+]CC12,O,0,0,10.18,['10.18'],['combined_training_datasets_unique.sdf']
5940,c1ccc2c(c1)CCCN2,O,0,0,4.96,['4.96'],['combined_training_datasets_unique.sdf']
5941,c1ccc2c(c1)CCN2,O,0,0,5.49,['5.49'],['combined_training_datasets_unique.sdf']
5942,c1ccc2c(c1)CC[NH2+]C2,O,0,0,9.48,['9.48'],['combined_training_datasets_unique.sdf']
5943,c1ccc2c(c1)CCc1cc3ccn4ccnc4c3nc1-2,O,0,0,2.43,['2.43'],['combined_training_datasets_unique.sdf']
5944,c1ccc2c(c1)CCc1nc3c(ccn4ccnc34)cc1-2,O,0,0,3.53,['3.53'],['combined_training_datasets_unique.sdf']
5945,c1ccc2c(c1)N1CCN2CC1,O,0,0,4.075,['4.075'],['combined_training_datasets_unique.sdf']
5946,c1ccc2c(c1)NCCN2,O,0,0,3.475,['3.475'],['combined_training_datasets_unique.sdf']
5947,c1ccc2c(c1)[nH]c1c2cc[n+]2cc3c(cc12)CCCC3,O,0,0,10.6,['10.6'],['combined_training_datasets_unique.sdf']
5948,c1ccc2c(c1)ccc1[nH]cnc12,O,0,0,5.28,['5.28'],['combined_training_datasets_unique.sdf']
5949,c1ccc2c(c1)ccc1cccnc12,O,0,0,4.25,['4.25'],['combined_training_datasets_unique.sdf']
5950,c1ccc2c(c1)ccc1ncccc12,O,0,0,5.15,['5.15'],['combined_training_datasets_unique.sdf']
5951,c1ccc2c(c1)cnc1ccccc12,O,0,0,4.58,['4.58'],['combined_training_datasets_unique.sdf']
5952,c1ccc2c3c([nH]c2c1)C[NH2+]CC3,O,0,0,8.4,['8.4'],['combined_training_datasets_unique.sdf']
5953,c1ccc2cc3[nH]cnc3cc2c1,O,0,0,5.24,['5.24'],['combined_training_datasets_unique.sdf']
5954,c1ccc2cc3nc4c(ccn5ccnc45)cc3cc2c1,O,0,0,2.43,['2.43'],['combined_training_datasets_unique.sdf']
5955,c1ccc2cc3ncccc3cc2c1,O,0,0,4.92,['4.92'],['combined_training_datasets_unique.sdf']
5956,c1ccc2cnccc2c1,O,0,0,5.376667,['5.376667'],['combined_training_datasets_unique.sdf']
5957,c1ccc2cnncc2c1,O,0,0,3.47,['3.47'],['combined_training_datasets_unique.sdf']
5958,c1ccc2n[nH]nc2c1,O,0,0,8.495,['8.495'],['combined_training_datasets_unique.sdf']
5959,c1ccc2nc3c(cc2c1)[nH]c1ccccc13,O,0,0,4.2,['4.2'],['combined_training_datasets_unique.sdf']
5960,c1ccc2nc3ccc4ccccc4c3cc2c1,O,0,0,4.39,['4.39'],['combined_training_datasets_unique.sdf']
5961,c1ccc2nc3ccccc3cc2c1,O,0,0,5.48,['5.48'],['combined_training_datasets_unique.sdf']
5962,c1ccc2ncccc2c1,O,0,0,4.8725,['4.8725'],['combined_training_datasets_unique.sdf']
5963,c1ccc2ncncc2c1,O,0,0,3.51,['3.51'],['combined_training_datasets_unique.sdf']
5964,c1ccc2nnccc2c1,O,0,0,2.29,['2.29'],['combined_training_datasets_unique.sdf']
5965,c1ccn(-c2ncc[nH]2)c1,O,0,0,5.36,['5.36'],['combined_training_datasets_unique.sdf']
5966,c1ccn2ccnc2c1,O,0,0,6.9,['6.9'],['combined_training_datasets_unique.sdf']
5967,c1ccncc1,O,0,0,5.21,['5.21'],['combined_training_datasets_unique.sdf']
5968,c1ccnnc1,O,0,0,2.29,['2.29'],['combined_training_datasets_unique.sdf']
5969,c1cn2ccc3cc4c(nc3c2n1)CCCC4,O,0,0,4.59,['4.59'],['combined_training_datasets_unique.sdf']
5970,c1cn[nH]c1,O,0,0,2.565,['2.565'],['combined_training_datasets_unique.sdf']
5971,c1cn[nH]n1,O,0,0,9.26,['9.26'],['combined_training_datasets_unique.sdf']
5972,c1cnc(OC[C@H]2C[C@H](c3ccc(C[NH+]4CCCC4)cc3)C2)nc1,O,0,0,9.8,['9.8'],['combined_training_datasets_unique.sdf']
5973,c1cnc2[nH]ccc2c1,O,0,0,4.48,['4.48'],['combined_training_datasets_unique.sdf']
5974,c1cnc2c(c1)CCCC2,O,0,0,6.6,['6.6'],['combined_training_datasets_unique.sdf']
5975,c1cnc2c(c1)C[C@@]1(C[NH+]3CCC1CC3)O2,O,0,0,8.9,['8.9'],['combined_training_datasets_unique.sdf']
5976,c1cnc2c(c1)c1c(c3cccnc32)CCCC1,O,0,0,5.3,['5.3'],['combined_training_datasets_unique.sdf']
5977,c1cnc2c(c1)ccc1c3c(cnc12)CCC3,O,0,0,5.78,['5.78'],['combined_training_datasets_unique.sdf']
5978,c1cnc2c(c1)ccc1c3c(cnc12)CCCC3,O,0,0,5.66,['5.66'],['combined_training_datasets_unique.sdf']
5979,c1cnc2c(c1)ccc1cccnc12,O,0,0,3.5,['3.5'],['combined_training_datasets_unique.sdf']
5980,c1cnc2c(c1)ccc1ncccc12,O,0,0,4.0,['4.0'],['combined_training_datasets_unique.sdf']
5981,c1cnc2ncncc2n1,O,0,0,4.13,['4.13'],['combined_training_datasets_unique.sdf']
5982,c1cncc(-c2ccc[nH]2)c1,O,0,0,4.32,['4.32'],['combined_training_datasets_unique.sdf']
5983,c1cncc(-c2ccco2)c1,O,0,0,4.62,['4.62'],['combined_training_datasets_unique.sdf']
5984,c1cncc(-c2ccoc2)c1,O,0,0,4.93,['4.93'],['combined_training_datasets_unique.sdf']
5985,c1coc(-c2ccncc2)c1,O,0,0,5.6,['5.6'],['combined_training_datasets_unique.sdf']
5986,c1coc(C2C[NH+]3CCC2CC3)c1,O,0,0,10.03,['10.03'],['combined_training_datasets_unique.sdf']
5987,c1csc(C2CCC[NH2+]2)c1,O,0,0,9.35,['9.35'],['combined_training_datasets_unique.sdf']
5988,c1cscn1,O,0,0,2.54,['2.54'],['combined_training_datasets_unique.sdf']
5989,c1nc(NC2CCCCC2)c2ncn(C3CCCCC3)c2n1,O,0,0,4.4,['4.4'],['combined_training_datasets_unique.sdf']
5990,c1nc2c(ccc3c4c(cnc32)CCCC4)c2c1CCCC2,O,0,0,6.23,['6.23'],['combined_training_datasets_unique.sdf']
5991,c1nc2cc3c(cc2[nH]1)CCCC3,O,0,0,5.98,['5.98'],['combined_training_datasets_unique.sdf']
5992,c1ncc2c(n1)NCCN2,O,0,0,6.63,['6.63'],['combined_training_datasets_unique.sdf']
5993,c1nn[n-]n1,O,0,0,4.815,['4.815'],['combined_training_datasets_unique.sdf']