,Solute SMILES,Solvent SMILES,Solute CAS,Solute IUPAC,pKa (avg),pKa (all),Source
3954,Cc1nc2c(OCc3ccccc3)nccn2c1C,O,0,0,4.8,['4.8'],['combined_training_datasets_unique.sdf']
3955,Cc1nc2c(OCc3ccccc3)nccn2c1N,O,0,0,4.6,['4.6'],['combined_training_datasets_unique.sdf']
3956,Cc1nc2c(O[C@H]3c4ccccc4C[C@@H]3O)cc(C(=O)N(C)C)cn2c1C,O,0,0,6.21,['6.21'],['combined_training_datasets_unique.sdf']
3957,Cc1nc2c3c(c(C(=O)N(C)C)cc2n1C)CC[C@@H](c1ccc(Cl)cc1)O3,O,0,0,5.59,['5.59'],['combined_training_datasets_unique.sdf']
3958,Cc1nc2c3c(c(C(=O)N(C)C)cc2n1C)CC[C@@H](c1ccc(Cl)cc1Cl)O3,O,0,0,5.36,['5.36'],['combined_training_datasets_unique.sdf']
3959,Cc1nc2c3c(c(C(=O)N(C)C)cc2n1C)CC[C@@H](c1ccc(F)cc1)O3,O,0,0,5.65,['5.65'],['combined_training_datasets_unique.sdf']
3960,Cc1nc2c3c(c(C(=O)N(C)C)cc2n1C)CC[C@@H](c1ccc2ccccc2c1)O3,O,0,0,5.57,['5.57'],['combined_training_datasets_unique.sdf']
3961,Cc1nc2c3c(c(C(=O)N(C)C)cc2n1C)CC[C@@H](c1ccccc1C1CC1)O3,O,0,0,5.63,['5.63'],['combined_training_datasets_unique.sdf']
3962,Cc1nc2c3c(c(C(=O)N(C)C)cc2n1C)CC[C@@H](c1ccccc1Cl)O3,O,0,0,5.45,['5.45'],['combined_training_datasets_unique.sdf']
3963,Cc1nc2c3c(c(C(=O)N(C)C)cc2n1C)CC[C@@H](c1ccccc1F)O3,O,0,0,5.55,['5.55'],['combined_training_datasets_unique.sdf']
3964,Cc1nc2c3c(c(C(=O)N(C)C)cn2c1Br)CCC(c1ccccc1)C3,O,0,0,5.11,['5.11'],['combined_training_datasets_unique.sdf']
3965,Cc1nc2c3c(c(C(=O)N(C)C)cn2c1Br)CCC(c1ccccc1)O3,O,0,0,4.68,['4.68'],['combined_training_datasets_unique.sdf']
3966,Cc1nc2c3c(c(C(=O)N(C)C)cn2c1C)CCC(c1ccc(F)cc1)O3,O,0,0,6.74,['6.74'],['combined_training_datasets_unique.sdf']
3967,Cc1nc2c3c(c(C(=O)N(C)C)cn2c1C)CCC(c1ccccc1)C3,O,0,0,7.16,['7.16'],['combined_training_datasets_unique.sdf']
3968,Cc1nc2c3c(c(C(=O)N(C)C)cn2c1C)CCC(c1ccccc1)O3,O,0,0,7.15,['7.15'],['combined_training_datasets_unique.sdf']
3969,Cc1nc2c3c(c(C(=O)N(C)C)cn2c1C)CCC(c1ccccc1F)O3,O,0,0,6.78,['6.78'],['combined_training_datasets_unique.sdf']
3970,Cc1nc2c3c(c(C(=O)N(C)C)cn2c1C)CCC(c1cccs1)O3,O,0,0,6.64,['6.64'],['combined_training_datasets_unique.sdf']
3971,Cc1nc2c3c(c(C(=O)N(C)C)cn2c1C)CCC1(CCc2ccccc21)O3,O,0,0,6.84,['6.84'],['combined_training_datasets_unique.sdf']
3972,Cc1nc2c3c(c(C(=O)N(C)C)cn2c1C)CCC1(Cc2ccccc2C1)O3,O,0,0,6.84,['6.84'],['combined_training_datasets_unique.sdf']
3973,Cc1nc2c3c(c(C(=O)N(C)C)cn2c1CO)CCC(c1ccccc1)C3,O,0,0,6.32,['6.32'],['combined_training_datasets_unique.sdf']
3974,Cc1nc2c3c(c(C(=O)N(C)C)cn2c1CO)CCC(c1ccccc1)O3,O,0,0,5.86,['5.86'],['combined_training_datasets_unique.sdf']
3975,Cc1nc2c3c(c(C(=O)N4CC(F)(F)C4)cn2c1C)CCC1(CCc2ccccc21)O3,O,0,0,6.55,['6.55'],['combined_training_datasets_unique.sdf']
3976,Cc1nc2c3c(c(C(=O)N4CC(F)C4)cn2c1C)CCC1(CCc2ccccc21)O3,O,0,0,6.65,['6.65'],['combined_training_datasets_unique.sdf']
3977,Cc1nc2c3c(c(C(=O)N4CC(O)C4)cn2c1C)CCC(c1ccccc1)O3,O,0,0,6.63,['6.63'],['combined_training_datasets_unique.sdf']
3978,Cc1nc2c3c(c(C(=O)N4CC4)cn2c1C)CCC(c1ccccc1)O3,O,0,0,6.63,['6.63'],['combined_training_datasets_unique.sdf']
3979,Cc1nc2c3c(c(C(=O)N4CCC4)cn2c1C)CCC(c1ccccc1)O3,O,0,0,6.64,['6.64'],['combined_training_datasets_unique.sdf']
3980,Cc1nc2c3c(c(C(=O)N4CCC4)cn2c1C)CCC1(CCc2ccccc21)O3,O,0,0,6.81,['6.81'],['combined_training_datasets_unique.sdf']
3981,Cc1nc2c3c(c(C(=O)N4CCCC4)cn2c1C)CCC(c1ccccc1)C3,O,0,0,7.2,['7.2'],['combined_training_datasets_unique.sdf']
3982,Cc1nc2c3c(c(C(=O)N4CCCC4)cn2c1C)CCC(c1ccccc1)O3,O,0,0,6.73,['6.73'],['combined_training_datasets_unique.sdf']
3983,Cc1nc2c3c(c(C(=O)N4CCCC4)cn2c1C)CCC1(CCc2ccccc21)O3,O,0,0,6.88,['6.88'],['combined_training_datasets_unique.sdf']
3984,Cc1nc2c3c(c(C(=O)N4CCCCC4)cn2c1C)CCC1(CCc2ccccc21)O3,O,0,0,6.81,['6.81'],['combined_training_datasets_unique.sdf']
3985,Cc1nc2c3c(c(C(=O)N4CCOCC4)cn2c1C)CCC(c1ccccc1)C3,O,0,0,7.05,['7.05'],['combined_training_datasets_unique.sdf']
3986,Cc1nc2c3c(c(C(=O)N4CCOCC4)cn2c1C)CCC1(CCc2ccccc21)O3,O,0,0,6.74,['6.74'],['combined_training_datasets_unique.sdf']
3987,Cc1nc2c3c(c(C(=O)NC4CC4)cn2c1C)CCC(c1ccccc1)O3,O,0,0,6.69,['6.69'],['combined_training_datasets_unique.sdf']
3988,Cc1nc2c3c(c(C(=O)NC4CC4)cn2c1C)CCC1(CCc2ccccc21)O3,O,0,0,6.76,['6.76'],['combined_training_datasets_unique.sdf']
3989,Cc1nc2c3c(c(C(=O)NC4CCC4)cn2c1C)CCC(c1ccccc1)O3,O,0,0,6.68,['6.68'],['combined_training_datasets_unique.sdf']
3990,Cc1nc2c3c(c(C(=O)NCCO)cn2c1C)CCC(c1ccccc1)C3,O,0,0,7.22,['7.22'],['combined_training_datasets_unique.sdf']
3991,Cc1nc2c3c(c(C(=O)Nc4ccccc4)cn2c1C)CCC(c1ccccc1)O3,O,0,0,6.59,['6.59'],['combined_training_datasets_unique.sdf']
3992,Cc1nc2c3c(c(C(=O)Nc4ccccc4)cn2c1C)CCC1(CCc2ccccc21)O3,O,0,0,6.76,['6.76'],['combined_training_datasets_unique.sdf']
3993,Cc1nc2c3c(c(C(N)=O)cn2c1C)CCC(c1ccccc1)C3,O,0,0,7.26,['7.26'],['combined_training_datasets_unique.sdf']
3994,Cc1nc2c3c(c(C(N)=O)cn2c1C)CCC(c1ccccc1)O3,O,0,0,6.52,['6.52'],['combined_training_datasets_unique.sdf']
3995,Cc1nc2c3c(ccn2c1C)CCC(c1ccccc1)C3,O,0,0,8.05,['8.05'],['combined_training_datasets_unique.sdf']
3996,Cc1nc2c3c(ccn2c1C)CCC(c1ccccc1)O3,O,0,0,7.73,['7.73'],['combined_training_datasets_unique.sdf']
3997,Cc1nc2c3c(ccn2c1CC#N)CCC(c1ccccc1)O3,O,0,0,6.0,['6.0'],['combined_training_datasets_unique.sdf']
3998,Cc1nc2c3ccccc3cc[n+]2c(C)c1O,O,0,0,4.0,['4.0'],['combined_training_datasets_unique.sdf']
3999,Cc1nc2cc(N)ccc2n1C,O,0,0,7.0,['7.0'],['combined_training_datasets_unique.sdf']
4000,Cc1nc2cccc(N)c2n1C,O,0,0,6.66,['6.66'],['combined_training_datasets_unique.sdf']
4001,Cc1nc2ccccc2[nH]1,O,0,0,6.26,['6.26'],['combined_training_datasets_unique.sdf']
4002,Cc1nc2ccccc2[nH]c1=O,O,0,0,9.88,['9.88'],['combined_training_datasets_unique.sdf']
4003,Cc1nc2ccccc2n1C,O,0,0,6.55,['6.55'],['combined_training_datasets_unique.sdf']
4004,Cc1nc2ccncc2n2c(-c3ccccc3Cl)nnc12,O,0,0,2.7,['2.7'],['combined_training_datasets_unique.sdf']
4005,Cc1nc2cncnc2nc1C,O,0,0,2.93,['2.93'],['combined_training_datasets_unique.sdf']
4006,Cc1nc2sccn2c(=O)c1CC[NH+]1CCC(=C(c2ccc(F)cc2)c2ccc(F)cc2)CC1,O,0,0,8.2,['8.2'],['combined_training_datasets_unique.sdf']
4007,Cc1nc[nH]c1C,O,0,0,8.19,['8.19'],['combined_training_datasets_unique.sdf']
4008,Cc1ncc(C(=O)[O-])s1,O,0,0,3.26,['3.26'],['combined_training_datasets_unique.sdf']
4009,Cc1ncc(C)c(N)n1,O,0,0,6.5,['6.5'],['combined_training_datasets_unique.sdf']
4010,Cc1ncc(CN(C=O)C(C)C(=S)CCO)c(N)n1,O,0,0,4.19,['4.19'],['combined_training_datasets_unique.sdf']
4011,Cc1ncc(CO)c(C)c1OCc1ccccc1,O,0,0,5.52,['5.52'],['combined_training_datasets_unique.sdf']
4012,Cc1ncc2cc(-c3c(Cl)cccc3Cl)c(NC(=O)c3ccco3)nc2n1,O,0,0,4.3,['4.3'],['combined_training_datasets_unique.sdf']
4013,Cc1ncc2nc(C)c(C)nc2n1,O,0,0,3.76,['3.76'],['combined_training_datasets_unique.sdf']
4014,Cc1ncc2nccnc2n1,O,0,0,4.87,['4.87'],['combined_training_datasets_unique.sdf']
4015,Cc1ncc[nH]1,O,0,0,7.896667,['7.896667'],['combined_training_datasets_unique.sdf']
4016,Cc1nccc2c1[nH]c1ccccc12,O,0,0,6.55,['6.55'],['combined_training_datasets_unique.sdf']
4017,Cc1nccn1C,O,0,0,7.64,['7.64'],['combined_training_datasets_unique.sdf']
4018,Cc1nccn1CC1CCc2c(c3ccccc3n2C)C1=O,O,0,0,7.3,['7.3'],['combined_training_datasets_unique.sdf']
4019,Cc1nccn1CCC1CCN(C(=O)CCS(=O)(=O)c2ccc3cc(Cl)ccc3c2)CC1,O,0,0,7.9,['7.9'],['combined_training_datasets_unique.sdf']
4020,Cc1ncnc2c1NCCN2,O,0,0,6.74,['6.74'],['combined_training_datasets_unique.sdf']
4021,Cc1ncnc2ccccc12,O,0,0,2.52,['2.52'],['combined_training_datasets_unique.sdf']
4022,Cc1ncnc2nccnc12,O,0,0,2.92,['2.92'],['combined_training_datasets_unique.sdf']
4023,Cc1ncncc1N,O,0,0,3.15,['3.15'],['combined_training_datasets_unique.sdf']
4024,Cc1ncsc1C(=O)[O-],O,0,0,3.54,['3.54'],['combined_training_datasets_unique.sdf']
4025,Cc1nn(-c2ccccc2)cc1C(=O)[O-],O,0,0,4.58,['4.58'],['combined_training_datasets_unique.sdf']
4026,Cc1nn(C)c(C)c1C,O,0,0,4.48,['4.48'],['combined_training_datasets_unique.sdf']
4027,Cc1nn(C)c2c1C(c1ccccc1F)N=CC(=O)N2C,O,0,0,4.69,['4.69'],['combined_training_datasets_unique.sdf']
4028,Cc1nn[n-]n1,O,0,0,5.21,['5.21'],['combined_training_datasets_unique.sdf']
4029,Cc1nnc(C)c(C)c1C,O,0,0,5.36,['5.36'],['combined_training_datasets_unique.sdf']
4030,Cc1nnc(C)c(C)n1,O,0,0,2.85,['2.85'],['combined_training_datasets_unique.sdf']
4031,Cc1nnc(C)n1O,O,0,0,6.5,['6.5'],['combined_training_datasets_unique.sdf']
4032,Cc1nnc(N)nc1C,O,0,0,3.71,['3.71'],['combined_training_datasets_unique.sdf']
4033,Cc1nnc(NS(=O)(=O)c2ccc(N)cc2)s1,O,0,0,5.34,['5.34'],['combined_training_datasets_unique.sdf']
4034,Cc1nnc(SCC2CS[C@@H]3C(=NC(=O)Cn4cnnn4)C(=O)N3C2C(=O)[O-])s1,O,0,0,2.1,['2.1'],['combined_training_datasets_unique.sdf']
4035,Cc1nnc2c(c1C)CCC2,O,0,0,5.36,['5.36'],['combined_training_datasets_unique.sdf']
4036,Cc1nnc2c(c1C)CCCC2,O,0,0,5.41,['5.41'],['combined_training_datasets_unique.sdf']
4037,Cc1nnn(CC(=O)[O-])n1,O,0,0,2.23,['2.23'],['combined_training_datasets_unique.sdf']
4038,Cc1nnnn1CC(=O)[O-],O,0,0,2.16,['2.16'],['combined_training_datasets_unique.sdf']
4039,Cc1noc(C2=CC(C)C[NH+](C)C2)n1,O,0,0,7.34,['7.34'],['combined_training_datasets_unique.sdf']
4040,Cc1noc(C2=CC(C)C[NH2+]C2)n1,O,0,0,8.17,['8.17'],['combined_training_datasets_unique.sdf']
4041,Cc1noc(C2=CCC(C)[NH+](C)C2)n1,O,0,0,7.35,['7.35'],['combined_training_datasets_unique.sdf']
4042,Cc1noc(C2=CCC(C)[NH2+]C2)n1,O,0,0,8.2,['8.2'],['combined_training_datasets_unique.sdf']
4043,Cc1noc(C2=CCC[NH+](C)C2)n1,O,0,0,7.16,['7.16'],['combined_training_datasets_unique.sdf']
4044,Cc1noc(C2=CCC[NH2+]C2)n1,O,0,0,8.24,['8.24'],['combined_training_datasets_unique.sdf']
4045,Cc1noc(C2CN(C)CC[NH2+]2)n1,O,0,0,6.2,['6.2'],['combined_training_datasets_unique.sdf']
4046,Cc1noc(C2CN3CC[NH+]2CC3)n1,O,0,0,6.0,['6.0'],['combined_training_datasets_unique.sdf']
4047,Cc1noc(C[NH+](C)C)n1,O,0,0,5.6,['5.6'],['combined_training_datasets_unique.sdf']
4048,Cc1nonc1CN=O,O,0,0,9.15,['9.15'],['combined_training_datasets_unique.sdf']
4049,Cc1nonc1[N-]S(=O)(=O)c1ccc(N)cc1,O,0,0,4.0,['4.0'],['combined_training_datasets_unique.sdf']
4050,Cc1oc2ccccc2c(=O)c1C(=O)c1cc(I)c([O-])c(I)c1,O,0,0,4.89,['4.89'],['combined_training_datasets_unique.sdf']
4051,Cc1oc2ccccc2c(=O)c1C(=O)c1ccc(O)cc1,O,0,0,7.74,['7.74'],['combined_training_datasets_unique.sdf']
4052,Cc1oc2ccccc2c1C(=O)c1cc(I)c([O-])c(I)c1,O,0,0,5.2,['5.2'],['combined_training_datasets_unique.sdf']
4053,Cc1oc2ccccc2c1C(=O)c1ccc(O)cc1,O,0,0,8.4,['8.4'],['combined_training_datasets_unique.sdf']
4054,Cc1oc2ccccc2c1C(=O)c1cccc(O)c1,O,0,0,8.4,['8.4'],['combined_training_datasets_unique.sdf']
4055,Cc1onc(-c2c(Cl)cccc2Cl)c1C(=O)N[C@@H]1C(=O)N2[C@@H](C(=O)[O-])C(C)(C)S[C@H]12,O,0,0,2.8,['2.8'],['combined_training_datasets_unique.sdf']
4056,Cc1onc(-c2ccccc2)c1C(=O)N[C@@H]1C(=O)N2[C@@H](C(=O)[O-])C(C)(C)S[C@H]12,O,0,0,2.8,['2.8'],['combined_training_datasets_unique.sdf']
4057,Cc1sccc1[C@@H]1CCc2c(C(=O)N(C)C)cc3c(nc(C)n3C)c2O1,O,0,0,5.66,['5.66'],['combined_training_datasets_unique.sdf']
4058,ClC1CC2CCN1CC2,O,0,0,6.98,['6.98'],['combined_training_datasets_unique.sdf']
4059,ClC1C[NH+]2CCC1CC2,O,0,0,8.79,['8.79'],['combined_training_datasets_unique.sdf']
4060,ClCC1CC2CC[NH+]1CC2,O,0,0,9.68,['9.68'],['combined_training_datasets_unique.sdf']
4061,ClCC1C[NH+]2CCC1CC2,O,0,0,10.15,['10.15'],['combined_training_datasets_unique.sdf']
4062,ClCC[NH+]1CCOCC1,O,0,0,6.27,['6.27'],['combined_training_datasets_unique.sdf']
4063,Clc1cc(-c2ccccc2)nnc1NCC[NH+]1CCOCC1,O,0,0,4.59,['4.59'],['combined_training_datasets_unique.sdf']
4064,Clc1cc(-c2cn[nH]n2)ccn1,O,0,0,7.6,['7.6'],['combined_training_datasets_unique.sdf']
4065,Clc1cc(Br)cc(Cl)c1NC1=[NH+]CCN1,O,0,0,7.72,['7.72'],['combined_training_datasets_unique.sdf']
4066,Clc1cc(Cl)c(NC2=[NH+]CCN2)c(Cl)c1,O,0,0,7.7,['7.7'],['combined_training_datasets_unique.sdf']
4067,Clc1cc(Cl)c(NC2=[NH+]CCN2)cc1Cl,O,0,0,7.7,['7.7'],['combined_training_datasets_unique.sdf']
4068,Clc1cc2cccnc2c2ncccc12,O,0,0,4.22,['4.22'],['combined_training_datasets_unique.sdf']
4069,Clc1ccc(-c2cn[nH]n2)cc1,O,0,0,8.46,['8.46'],['combined_training_datasets_unique.sdf']
4070,Clc1ccc(-n2cc(NCC[NH+]3CCOCC3)nn2)cc1Cl,O,0,0,6.6,['6.6'],['combined_training_datasets_unique.sdf']
4071,Clc1ccc(C(Cn2ccnc2)OCc2ccc(Sc3ccccc3)cc2)c(Cl)c1,O,0,0,6.54,['6.54'],['combined_training_datasets_unique.sdf']
4072,Clc1ccc(C/C(=C\C[NH+]2CCCC2)c2ccccc2)cc1,O,0,0,8.77,['8.77'],['combined_training_datasets_unique.sdf']
4073,Clc1ccc(C2C[NH2+]2)cc1,O,0,0,6.18,['6.18'],['combined_training_datasets_unique.sdf']
4074,Clc1ccc(C2[NH2+]CCS2)cc1,O,0,0,5.01,['5.01'],['combined_training_datasets_unique.sdf']
4075,Clc1ccc(CN(Cc2nn[n-]n2)c2ccccc2)c(Cl)c1,O,0,0,4.54,['4.54'],['combined_training_datasets_unique.sdf']
4076,Clc1ccc(CN(Cc2nn[n-]n2)c2ccccc2)cc1,O,0,0,4.38,['4.38'],['combined_training_datasets_unique.sdf']
4077,Clc1ccc(CN(Cc2nn[n-]n2)c2ccccc2)cc1Cl,O,0,0,4.49,['4.49'],['combined_training_datasets_unique.sdf']
4078,Clc1ccc(Cc2c3ccccc3nc3ccccc23)cc1,O,0,0,7.06,['7.06'],['combined_training_datasets_unique.sdf']
4079,Clc1ccc(Cl)c(-c2cn[nH]n2)c1,O,0,0,8.17,['8.17'],['combined_training_datasets_unique.sdf']
4080,Clc1ccc(Cl)c(NC2=[NH+]CCN2)c1,O,0,0,8.333333,['8.333333'],['combined_training_datasets_unique.sdf']
4081,Clc1ccc(Cn2cc(NCC[NH+]3CCOCC3)nn2)cc1Cl,O,0,0,6.7,['6.7'],['combined_training_datasets_unique.sdf']
4082,Clc1ccc(NC2=[NH+]CCN2)c(Cl)c1,O,0,0,8.703333,['8.703333'],['combined_training_datasets_unique.sdf']
4083,Clc1ccc(Nc2c3ccccc3nc3ccccc23)cc1,O,0,0,7.06,['7.06'],['combined_training_datasets_unique.sdf']
4084,Clc1ccc2c(NCc3nc(-c4ccccc4)co3)cc[nH+]c2c1,O,0,0,6.36,['6.36'],['combined_training_datasets_unique.sdf']
4085,Clc1ccc2c(NCc3nc(-c4ccccc4)cs3)cc[nH+]c2c1,O,0,0,6.45,['6.45'],['combined_training_datasets_unique.sdf']
4086,Clc1ccc2c(c1)C(N1CC[NH2+]CC1)=[NH+]c1ccccc1O2,O,0,0,9.935,['9.935'],['combined_training_datasets_unique.sdf']
4087,Clc1ccc2c(c1)NC1CC=Cc3ccnc-2c31,O,0,0,4.5,['4.5'],['combined_training_datasets_unique.sdf']
4088,Clc1ccc2n[nH]nc2c1,O,0,0,7.7,['7.7'],['combined_training_datasets_unique.sdf']
4089,Clc1ccc2nsnc2c1NC1=[NH+]CCN1,O,0,0,8.0,['8.0'],['combined_training_datasets_unique.sdf']
4090,Clc1cccc(-c2ccccn2)n1,O,0,0,3.7,['3.7'],['combined_training_datasets_unique.sdf']
4091,Clc1cccc(-c2cn[nH]n2)c1,O,0,0,8.32,['8.32'],['combined_training_datasets_unique.sdf']
4092,Clc1cccc(-c2cn[nH]n2)c1Cl,O,0,0,8.06,['8.06'],['combined_training_datasets_unique.sdf']
4093,Clc1cccc(-c2nn[n-]n2)c1,O,0,0,3.61,['3.61'],['combined_training_datasets_unique.sdf']
4094,Clc1cccc(Br)c1N(CC1CC1)C1=[NH+]CCN1,O,0,0,10.8,['10.8'],['combined_training_datasets_unique.sdf']
4095,Clc1cccc(Br)c1NC1=[NH+]CCN1,O,0,0,7.93,['7.93'],['combined_training_datasets_unique.sdf']
4096,Clc1cccc(Cl)c1CON=C1CC[NH+](CCCc2ccccc2)CC1,O,0,0,5.7,['5.7'],['combined_training_datasets_unique.sdf']
4097,Clc1cccc(Cl)c1N(CC1CC1)C1=[NH+]CCN1,O,0,0,10.9,['10.9'],['combined_training_datasets_unique.sdf']
4098,Clc1cccc(Cl)c1NC1=[NH+]CCN1,O,0,0,8.055,['8.055'],['combined_training_datasets_unique.sdf']
4099,Clc1cccc(NC2=[NH+]CCN2)c1Cl,O,0,0,8.55,['8.55'],['combined_training_datasets_unique.sdf']
4100,Clc1cccc(Nc2c3ccccc3nc3ccccc23)c1,O,0,0,6.76,['6.76'],['combined_training_datasets_unique.sdf']
4101,Clc1ccccc1-c1cn[nH]n1,O,0,0,8.5,['8.5'],['combined_training_datasets_unique.sdf']
4102,Clc1ccccc1-c1nn[n-]n1,O,0,0,3.69,['3.69'],['combined_training_datasets_unique.sdf']
4103,Clc1ccccc1CN(Cc1nn[n-]n1)c1ccccc1,O,0,0,4.34,['4.34'],['combined_training_datasets_unique.sdf']
4104,Clc1ccccc1NC1=[NH+]CCN1,O,0,0,9.15,['9.15'],['combined_training_datasets_unique.sdf']
4105,Clc1ccccc1Nc1c2ccccc2nc2ccccc12,O,0,0,6.55,['6.55'],['combined_training_datasets_unique.sdf']
4106,Clc1cccnc1,O,0,0,2.77,['2.77'],['combined_training_datasets_unique.sdf']
4107,Clc1ccnc(-c2ccccn2)c1,O,0,0,3.8,['3.8'],['combined_training_datasets_unique.sdf']
4108,Clc1cnc2c(ccc3cccnc32)c1,O,0,0,3.99,['3.99'],['combined_training_datasets_unique.sdf']
4109,Clc1ncnc2nc[nH]c12,O,0,0,7.75,['7.75'],['combined_training_datasets_unique.sdf']
4110,Clc1nn[n-]n1,O,0,0,2.07,['2.07'],['combined_training_datasets_unique.sdf']
4111,Cn1/c(=N\N)sc2ccccc21,O,0,0,6.1,['6.1'],['combined_training_datasets_unique.sdf']
4112,Cn1/c(=[NH+]/N)ccc2ccccc21,O,0,0,9.17,['9.17'],['combined_training_datasets_unique.sdf']
4113,Cn1c(=O)[nH]c2ncn(C)c2c1=O,O,0,0,8.65,['8.65'],['combined_training_datasets_unique.sdf']
4114,Cn1c(=O)c2[nH]cnc2n(C)c1=O,O,0,0,7.71,['7.71'],['combined_training_datasets_unique.sdf']
4115,Cn1c(=O)c2c([nH]c(=O)n2C)n(C)c1=O,O,0,0,6.0,['6.0'],['combined_training_datasets_unique.sdf']
4116,Cn1c(=O)c2c(nc3n(CCC[NH+]4CCN(c5cccc(Cl)c5)CC4)c(-c4ccccc4)cn23)n(C)c1=O,O,0,0,10.61,['10.61'],['combined_training_datasets_unique.sdf']
4117,Cn1c(=O)c2c(nc3n(CCC[NH+]4CCN(c5cccc(Cl)c5)CC4)ccn23)n(C)c1=O,O,0,0,8.35,['8.35'],['combined_training_datasets_unique.sdf']
4118,Cn1c(=O)c2c(nc3n(CCC[NH+]4CCN(c5ccccc5)CC4)c(-c4ccccc4)cn23)n(C)c1=O,O,0,0,8.79,['8.79'],['combined_training_datasets_unique.sdf']
4119,Cn1c(=O)c2c(nc3n(CCC[NH+]4CCN(c5ccccc5)CC4)ccn23)n(C)c1=O,O,0,0,8.09,['8.09'],['combined_training_datasets_unique.sdf']
4120,Cn1c(=O)c2c(nc3n(CCC[NH+]4CCc5ccccc5C4)c(-c4ccccc4)cn23)n(C)c1=O,O,0,0,10.41,['10.41'],['combined_training_datasets_unique.sdf']
4121,Cn1c(=O)c2c(ncn2CC(=O)[O-])n(C)c1=O,O,0,0,4.48,['4.48'],['combined_training_datasets_unique.sdf']
4122,Cn1c(=O)c2cn[nH]c2n(C)c1=O,O,0,0,9.26,['9.26'],['combined_training_datasets_unique.sdf']
4123,Cn1c(=O)n(C)c2c(N)cccc21,O,0,0,3.06,['3.06'],['combined_training_datasets_unique.sdf']
4124,Cn1c(=O)nc2sc(S(N)(=O)=O)nn2c1=O,O,0,0,7.3,['7.3'],['combined_training_datasets_unique.sdf']
4125,Cn1c(=S)[nH]c2cc3c(cc21)CCCC3,O,0,0,10.78,['10.78'],['combined_training_datasets_unique.sdf']
4126,Cn1c(=S)[nH]c2cncnc21,O,0,0,7.48,['7.48'],['combined_training_datasets_unique.sdf']
4127,Cn1c(CO)nc2ccccc21,O,0,0,4.36,['4.36'],['combined_training_datasets_unique.sdf']
4128,Cn1c(N)nc2cc[nH]c2c1=O,O,0,0,5.1,['5.1'],['combined_training_datasets_unique.sdf']
4129,Cn1c(N)nc2nc[nH]c2c1=O,O,0,0,10.43,['10.43'],['combined_training_datasets_unique.sdf']
4130,Cn1c2c(s/c1=N\N)CCCC2,O,0,0,8.2,['8.2'],['combined_training_datasets_unique.sdf']
4131,Cn1c2ccccc2c(=[NH2+])c2ccccc21,O,0,0,11.01,['11.01'],['combined_training_datasets_unique.sdf']
4132,Cn1cc(-c2cccc(C(F)(F)F)c2)c2sc(C(N)=[NH+]C3CCS(=O)(=O)CC3)cc2c1=O,O,0,0,8.4,['8.4'],['combined_training_datasets_unique.sdf']
4133,Cn1cc(-c2noc(C3=CCC[NH+](C)C3)n2)c2ccccc21,O,0,0,7.2,['7.2'],['combined_training_datasets_unique.sdf']
4134,Cn1cc(-c2noc(C3=CCC[NH2+]C3)n2)c2ccccc21,O,0,0,7.9,['7.9'],['combined_training_datasets_unique.sdf']
4135,Cn1cc(-c2noc(CC[NH+](C)C)n2)c2ccccc21,O,0,0,7.7,['7.7'],['combined_training_datasets_unique.sdf']
4136,Cn1cc(-c2noc(C[NH+](C)C)n2)c2ccccc21,O,0,0,5.6,['5.6'],['combined_training_datasets_unique.sdf']
4137,Cn1cc(-c2noc(C[NH3+])n2)c2ccccc21,O,0,0,6.4,['6.4'],['combined_training_datasets_unique.sdf']
4138,Cn1cc(N)cc1C(=O)[O-],O,0,0,5.25,['5.25'],['combined_training_datasets_unique.sdf']
4139,Cn1cc(NC(=O)c2cc(NC(=O)c3cc(NC=O)cn3C)cn2C)cc1C(=O)NCCC[NH+](C)C,O,0,0,9.5,['9.5'],['combined_training_datasets_unique.sdf']
4140,Cn1cc([C@H]2C[C@H]3[C@@H](CF)SC(N)=[NH+][C@@]3(c3ccc(F)cc3F)CO2)cn1,O,0,0,7.2,['7.2'],['combined_training_datasets_unique.sdf']
4141,Cn1ccc(=O)c2ccccc21,O,0,0,2.36,['2.36'],['combined_training_datasets_unique.sdf']
4142,Cn1ccc(N)n1,O,0,0,3.81,['3.81'],['combined_training_datasets_unique.sdf']
4143,Cn1ccc2c(Nc3cccc(Cl)c3)ncc(C(=O)N3CCOCC3)c21,O,0,0,6.1,['6.1'],['combined_training_datasets_unique.sdf']
4144,Cn1ccc2ccc3cccnc3c21,O,0,0,4.36,['4.36'],['combined_training_datasets_unique.sdf']
4145,Cn1cccc1-c1cccnc1,O,0,0,4.643333,['4.643333'],['combined_training_datasets_unique.sdf']
4146,Cn1cccc1C(=O)[O-],O,0,0,4.51,['4.51'],['combined_training_datasets_unique.sdf']
4147,Cn1cccn1,O,0,0,2.48,['2.48'],['combined_training_datasets_unique.sdf']
4148,Cn1ccnc1,O,0,0,7.0975,['7.0975'],['combined_training_datasets_unique.sdf']
4149,Cn1ccnc1-c1ccccn1,O,0,0,5.7,['5.7'],['combined_training_datasets_unique.sdf']
4150,Cn1ccnc1Br,O,0,0,3.82,['3.82'],['combined_training_datasets_unique.sdf']
4151,Cn1ccnc1F,O,0,0,2.3,['2.3'],['combined_training_datasets_unique.sdf']