,Solute SMILES,Solvent SMILES,Solute CAS,Solute IUPAC,pKa (avg),pKa (all),Source
1811,CC[NH+](CC)CC(=O)Nc1ccc(C)cc1,O,0,0,8.13,['8.13'],['combined_training_datasets_unique.sdf']
1812,CC[NH+](CC)CC(=O)Nc1ccc(C)cc1C,O,0,0,7.95,['7.95'],['combined_training_datasets_unique.sdf']
1813,CC[NH+](CC)CC(=O)Nc1ccccc1,O,0,0,8.0,['8.0'],['combined_training_datasets_unique.sdf']
1814,CC[NH+](CC)CC(=O)Nc1ccccc1C,O,0,0,7.95,['7.95'],['combined_training_datasets_unique.sdf']
1815,CC[NH+](CC)CC(C)N=O,O,0,0,10.98,['10.98'],['combined_training_datasets_unique.sdf']
1816,CC[NH+](CC)CC(N=O)C(C)N=O,O,0,0,10.75,['10.75'],['combined_training_datasets_unique.sdf']
1817,CC[NH+](CC)CC(O)CO,O,0,0,9.77,['9.77'],['combined_training_datasets_unique.sdf']
1818,CC[NH+](CC)CC1CO1,O,0,0,8.55,['8.55'],['combined_training_datasets_unique.sdf']
1819,CC[NH+](CC)CCBr,O,0,0,7.0,['7.0'],['combined_training_datasets_unique.sdf']
1820,CC[NH+](CC)CCC(=O)Nc1c(C)cccc1C,O,0,0,8.895,['8.895'],['combined_training_datasets_unique.sdf']
1821,CC[NH+](CC)CCC(C)=O,O,0,0,9.25,['9.25'],['combined_training_datasets_unique.sdf']
1822,CC[NH+](CC)CCC(OC(=O)c1ccccc1)c1ccccc1,O,0,0,7.53,['7.53'],['combined_training_datasets_unique.sdf']
1823,CC[NH+](CC)CCCC#N,O,0,0,9.29,['9.29'],['combined_training_datasets_unique.sdf']
1824,CC[NH+](CC)CCCC(=O)Nc1c(C)cccc1C,O,0,0,9.52,['9.52'],['combined_training_datasets_unique.sdf']
1825,CC[NH+](CC)CCCC(C)=O,O,0,0,10.1,['10.1'],['combined_training_datasets_unique.sdf']
1826,CC[NH+](CC)CCCCC#N,O,0,0,10.08,['10.08'],['combined_training_datasets_unique.sdf']
1827,CC[NH+](CC)CCCCC(=O)Nc1c(C)cccc1C,O,0,0,9.96,['9.96'],['combined_training_datasets_unique.sdf']
1828,CC[NH+](CC)CCCCCC(=O)Nc1c(C)cccc1C,O,0,0,10.24,['10.24'],['combined_training_datasets_unique.sdf']
1829,CC[NH+](CC)CCCCCCC(=O)Nc1c(C)cccc1C,O,0,0,10.24,['10.24'],['combined_training_datasets_unique.sdf']
1830,CC[NH+](CC)CCCN1c2cc(F)ccc2CCc2ccc(F)cc21,O,0,0,7.65,['7.65'],['combined_training_datasets_unique.sdf']
1831,CC[NH+](CC)CCCNC(=O)CN=O,O,0,0,9.54,['9.54'],['combined_training_datasets_unique.sdf']
1832,CC[NH+](CC)CCC[C@@H](C)[C@H]1CC[C@H]2[C@@H]3CC[C@@H]4C[C@H](O)CC[C@]4(C)[C@H]3C[C@H](O)[C@@]21C,O,0,0,10.34,['10.34'],['combined_training_datasets_unique.sdf']
1833,CC[NH+](CC)CCN1C(=O)Nc2ccccc2C1c1ccccc1,O,0,0,10.23,['10.23'],['combined_training_datasets_unique.sdf']
1834,CC[NH+](CC)CCNC(=O)[C@H]1C[C@@H]1c1ccccc1,O,0,0,8.9,['8.9'],['combined_training_datasets_unique.sdf']
1835,CC[NH+](CC)CCNC(=O)c1cc(Cl)c(N)cc1OC,O,0,0,9.471667,['9.471667'],['combined_training_datasets_unique.sdf']
1836,CC[NH+](CC)CCNc1nc2c(=O)c3cc(C)ccc3[nH]c2s1,O,0,0,8.4,['8.4'],['combined_training_datasets_unique.sdf']
1837,CC[NH+](CC)CCNc1nc2c(=O)c3cc(F)ccc3[nH]c2s1,O,0,0,8.3,['8.3'],['combined_training_datasets_unique.sdf']
1838,CC[NH+](CC)CCNc1nc2c(=O)c3ccccc3[nH]c2s1,O,0,0,9.3,['9.3'],['combined_training_datasets_unique.sdf']
1839,CC[NH+](CC)CCO,O,0,0,9.84,['9.84'],['combined_training_datasets_unique.sdf']
1840,CC[NH+](CC)CCO/N=C1/C[C@H]2C(C)(C)O[C@H]3CC(=O)OC[C@]32[C@H]2CC[C@@]3(C)[C@H](c4ccoc4)OC(=O)[C@H]4O[C@]43[C@]12C,O,0,0,9.17,['9.17'],['combined_training_datasets_unique.sdf']
1841,CC[NH+](CC)CCOC(=O)c1ccc2ccccc2c1,O,0,0,7.52,['7.52'],['combined_training_datasets_unique.sdf']
1842,CC[NH+](CC)CCOC(=O)c1ccccc1,O,0,0,8.9,['8.9'],['combined_training_datasets_unique.sdf']
1843,CC[NH+](CC)CCOc1ccc(C(=O)N2C/C(=C\c3ccccc3)C(=O)/C(=C/c3ccccc3)C2)cc1,O,0,0,10.84,['10.84'],['combined_training_datasets_unique.sdf']
1844,CC[NH+](CC)CCSC,O,0,0,9.62,['9.62'],['combined_training_datasets_unique.sdf']
1845,CC[NH+](CC)CCSC(C)C,O,0,0,9.32,['9.32'],['combined_training_datasets_unique.sdf']
1846,CC[NH+](CC)CCSC1CCCCC1,O,0,0,8.11,['8.11'],['combined_training_datasets_unique.sdf']
1847,CC[NH+](CC)CCSCC(C)C,O,0,0,8.83,['8.83'],['combined_training_datasets_unique.sdf']
1848,CC[NH+](CC)CCn1ccc(=O)c([O-])c1C,O,0,0,8.57,['8.57'],['combined_training_datasets_unique.sdf']
1849,CC[NH+](CC)Cc1ccccc1,O,0,0,9.44,['9.44'],['combined_training_datasets_unique.sdf']
1850,CC[NH+](CC)Cc1ccccc1OC,O,0,0,10.2,['10.2'],['combined_training_datasets_unique.sdf']
1851,CC[NH+](CC)Cc1cn2nc(-c3ccccc3)cc(C)c2n1,O,0,0,8.79,['8.79'],['combined_training_datasets_unique.sdf']
1852,CC[NH+](CC)Cc1no[n+]([O-])c1C#N,O,0,0,5.8,['5.8'],['combined_training_datasets_unique.sdf']
1853,CC[NH+](CC1CO1)CC1CO1,O,0,0,6.91,['6.91'],['combined_training_datasets_unique.sdf']
1854,CC[NH+](CCO)CC(C)O,O,0,0,8.9,['8.9'],['combined_training_datasets_unique.sdf']
1855,CC[NH+](Cc1ccccc1)Cc1no[n+]([O-])c1C#N,O,0,0,5.58,['5.58'],['combined_training_datasets_unique.sdf']
1856,CC[NH+]1CC1,O,0,0,7.91,['7.91'],['combined_training_datasets_unique.sdf']
1857,CC[NH+]1CCC=C1C,O,0,0,11.88,['11.88'],['combined_training_datasets_unique.sdf']
1858,CC[NH+]1CCCC1,O,0,0,10.96,['10.96'],['combined_training_datasets_unique.sdf']
1859,CC[NH+]1CCCC1C,O,0,0,10.6,['10.6'],['combined_training_datasets_unique.sdf']
1860,CC[NH+]1CCCC=C1C,O,0,0,11.57,['11.57'],['combined_training_datasets_unique.sdf']
1861,CC[NH+]1CCCCC1,O,0,0,10.68,['10.68'],['combined_training_datasets_unique.sdf']
1862,CC[NH+]1CCCCC1C,O,0,0,10.68,['10.68'],['combined_training_datasets_unique.sdf']
1863,CC[NH+]1CCC[C@H]1CNC(=O)c1c(OC)ccc(Br)c1OC,O,0,0,8.9,['8.9'],['combined_training_datasets_unique.sdf']
1864,CC[NH+]1CCN(c2cc(=O)oc3c(C)c(O[C@@H]4OC(C)(C)[C@H](OC)[C@@H](OC(=O)c5ccc(C)[nH]5)[C@H]4O)ccc23)CC1,O,0,0,7.5,['7.5'],['combined_training_datasets_unique.sdf']
1865,CC[NH+]1CCOCC1,O,0,0,7.72,['7.72'],['combined_training_datasets_unique.sdf']
1866,CC[NH+]1CCc2onc(OC)c2C1,O,0,0,7.0,['7.0'],['combined_training_datasets_unique.sdf']
1867,CC[NH+]1[C@@H](C)[C@@H]1C,O,0,0,9.41,['9.41'],['combined_training_datasets_unique.sdf']
1868,CC[NH+]1[C@@H](C)[C@H]1C,O,0,0,8.57,['8.57'],['combined_training_datasets_unique.sdf']
1869,CC[NH+]=C(N)[NH+]=C(N)Nc1ccc(Cl)cc1,O,0,0,10.82,['10.82'],['combined_training_datasets_unique.sdf']
1870,CC[NH+]=C1Nc2ccccc2C(C)N1,O,0,0,10.8,['10.8'],['combined_training_datasets_unique.sdf']
1871,CC[NH2+]C(C)C,O,0,0,11.03,['11.03'],['combined_training_datasets_unique.sdf']
1872,CC[NH2+]C(C)Cc1cccc(C(F)(F)F)c1,O,0,0,10.0,['10.0'],['combined_training_datasets_unique.sdf']
1873,CC[NH2+]CC,O,0,0,11.05,['11.05'],['combined_training_datasets_unique.sdf']
1874,CC[NH2+]CC(=O)N(CC)CC,O,0,0,8.78,['8.78'],['combined_training_datasets_unique.sdf']
1875,CC[NH2+]CC(=O)Nc1c(C)cccc1C,O,0,0,8.06,['8.06'],['combined_training_datasets_unique.sdf']
1876,CC[NH2+]CCC[C@@]1(c2ccccc2)C=C(c2cc(F)ccc2F)CN1C(=O)N(C)C,O,0,0,10.7,['10.7'],['combined_training_datasets_unique.sdf']
1877,CC[NH2+]Cc1ccc(C)cc1,O,0,0,10.04,['10.04'],['combined_training_datasets_unique.sdf']
1878,CC[NH2+]Cc1ccccc1,O,0,0,9.75,['9.75'],['combined_training_datasets_unique.sdf']
1879,CC[NH3+],O,0,0,10.77,['10.77'],['combined_training_datasets_unique.sdf']
1880,CCc1[nH]c(C)c[nH+]1,O,0,0,8.5,['8.5'],['combined_training_datasets_unique.sdf']
1881,CCc1[nH]c2cc(F)ccc2c1C1CC[NH+](CCCSc2ccc(F)cc2)CC1,O,0,0,9.8,['9.8'],['combined_training_datasets_unique.sdf']
1882,CCc1[nH]cc[nH+]1,O,0,0,7.836667,['7.836667'],['combined_training_datasets_unique.sdf']
1883,CCc1c(-c2ccccc2)[nH][nH]c1=O,O,0,0,7.8,['7.8'],['combined_training_datasets_unique.sdf']
1884,CCc1c(-c2ccccc2)[nH]n(-c2ccccc2)c1=O,O,0,0,8.0,['8.0'],['combined_training_datasets_unique.sdf']
1885,CCc1c(C)[nH]n(C)c1=O,O,0,0,3.5,['3.5'],['combined_training_datasets_unique.sdf']
1886,CCc1c(C)nc2c3c(c(C(=O)N(C)C)cn12)CCC(c1ccccc1)O3,O,0,0,6.7,['6.7'],['combined_training_datasets_unique.sdf']
1887,CCc1c(C)nnc(C)c1C,O,0,0,5.17,['5.17'],['combined_training_datasets_unique.sdf']
1888,CCc1c(O)ccc(C(C)C)c1C,O,0,0,10.85,['10.85'],['combined_training_datasets_unique.sdf']
1889,CCc1c([O-])c(=O)ccn1CC,O,0,0,9.93,['9.93'],['combined_training_datasets_unique.sdf']
1890,CCc1c([O-])cc(C)oc1=O,O,0,0,5.3,['5.3'],['combined_training_datasets_unique.sdf']
1891,CCc1c[nH+]ccc1N,O,0,0,9.17,['9.17'],['combined_training_datasets_unique.sdf']
1892,CCc1cc(/N=N/c2ccc(N(C)C)cc2)ccc1C,O,0,0,2.59,['2.59'],['combined_training_datasets_unique.sdf']
1893,CCc1cc(C(=O)[O-])cs1,O,0,0,4.19,['4.19'],['combined_training_datasets_unique.sdf']
1894,CCc1cc(C(C)C)c(O)cc1C,O,0,0,10.91,['10.91'],['combined_training_datasets_unique.sdf']
1895,CCc1cc(C(C)C)ccc1O,O,0,0,10.77,['10.77'],['combined_training_datasets_unique.sdf']
1896,CCc1cc(C)cc(O)c1,O,0,0,10.1,['10.1'],['combined_training_datasets_unique.sdf']
1897,CCc1cc(C)nnc1C,O,0,0,4.73,['4.73'],['combined_training_datasets_unique.sdf']
1898,CCc1cc(Cl)n(C)c2nc3ccccc3c1-2,O,0,0,7.46,['7.46'],['combined_training_datasets_unique.sdf']
1899,CCc1cc(N)cc(N2CCc3ccccc3C2)[nH+]1,O,0,0,9.0,['9.0'],['combined_training_datasets_unique.sdf']
1900,CCc1cc(O)cc(C)c1Cl,O,0,0,9.6,['9.6'],['combined_training_datasets_unique.sdf']
1901,CCc1cc2c(C)cc(=O)oc2cc1O,O,0,0,8.01,['8.01'],['combined_training_datasets_unique.sdf']
1902,CCc1ccc(-n2c(Cl)cc3[nH]c(=O)c(-c4ccccc4)c([O-])c32)cc1,O,0,0,6.0,['6.0'],['combined_training_datasets_unique.sdf']
1903,CCc1ccc(/N=N/c2ccc(N(C)C)cc2)cc1C,O,0,0,2.6,['2.6'],['combined_training_datasets_unique.sdf']
1904,CCc1ccc(/N=N/c2ccc(N(C)C)cc2)cc1CC,O,0,0,2.58,['2.58'],['combined_training_datasets_unique.sdf']
1905,CCc1ccc(C(=O)/C=C/C(=O)[O-])cc1,O,0,0,3.38,['3.38'],['combined_training_datasets_unique.sdf']
1906,CCc1ccc(C(=O)[O-])nc1,O,0,0,5.86,['5.86'],['combined_training_datasets_unique.sdf']
1907,CCc1ccc(C(C)C)cc1O,O,0,0,10.61,['10.61'],['combined_training_datasets_unique.sdf']
1908,CCc1ccc(C)nn1,O,0,0,4.17,['4.17'],['combined_training_datasets_unique.sdf']
1909,CCc1ccc(CCCC[NH+](C)C)cc1,O,0,0,9.9,['9.9'],['combined_training_datasets_unique.sdf']
1910,CCc1ccc(CCC[NH+](C)C)cc1,O,0,0,10.63,['10.63'],['combined_training_datasets_unique.sdf']
1911,CCc1ccc(N)cc1,O,0,0,5.16,['5.16'],['combined_training_datasets_unique.sdf']
1912,CCc1ccc(O)c(C(C)C)c1,O,0,0,10.82,['10.82'],['combined_training_datasets_unique.sdf']
1913,CCc1ccc(O)cc1,O,0,0,10.105,['10.105'],['combined_training_datasets_unique.sdf']
1914,CCc1ccc2c(c1)[C@@H](NC[C@@H](O)[C@H](Cc1cc(F)cc(F)c1)NC(C)=O)CS(=O)(=O)C2,O,0,0,5.8,['5.8'],['combined_training_datasets_unique.sdf']
1915,CCc1cccc(/N=N/c2ccc(N(C)C)cc2)c1,O,0,0,2.16,['2.16'],['combined_training_datasets_unique.sdf']
1916,CCc1cccc(C)c1CNc1cc(C(=O)N(C)C)[nH+]c2c(Br)c(C)[nH]c12,O,0,0,5.84,['5.84'],['combined_training_datasets_unique.sdf']
1917,CCc1cccc(C)c1CNc1cc(C(=O)N(C)C)[nH+]c2c(C)c(C)[nH]c12,O,0,0,7.57,['7.57'],['combined_training_datasets_unique.sdf']
1918,CCc1cccc(C)c1CNc1cc(C(=O)N(C)C)[nH+]c2c(CO)c(C)[nH]c12,O,0,0,7.07,['7.07'],['combined_training_datasets_unique.sdf']
1919,CCc1cccc(C)c1CNc1cc(C(=O)N(C)C)[nH+]c2cc(C)[nH]c12,O,0,0,7.39,['7.39'],['combined_training_datasets_unique.sdf']
1920,CCc1cccc(C)c1CNc1cc(C(N)=O)cn2c(C)c(C)nc12,O,0,0,6.1,['6.1'],['combined_training_datasets_unique.sdf']
1921,CCc1cccc(CC)c1NC1=[NH+]CCN1,O,0,0,10.606667,['10.606667'],['combined_training_datasets_unique.sdf']
1922,CCc1cccc2c3c([nH]c12)C(CC)(CC(=O)[O-])OCC3,O,0,0,4.7,['4.7'],['combined_training_datasets_unique.sdf']
1923,CCc1cccc2cc(C(O)C[NH2+]C(C)(C)C)oc12,O,0,0,8.95,['8.95'],['combined_training_datasets_unique.sdf']
1924,CCc1cccc2ccc(O)cc12,O,0,0,9.54,['9.54'],['combined_training_datasets_unique.sdf']
1925,CCc1ccccc1C(=O)N(C1CCC2(CC1)OCCO2)C(Cc1ccc(Cl)cc1)C[NH+](C)C,O,0,0,7.4,['7.4'],['combined_training_datasets_unique.sdf']
1926,CCc1ccccc1C(=O)[O-],O,0,0,3.79,['3.79'],['combined_training_datasets_unique.sdf']
1927,CCc1ccccc1N,O,0,0,4.37,['4.37'],['combined_training_datasets_unique.sdf']
1928,CCc1ccccc1Nc1c2ccccc2nc2ccccc12,O,0,0,7.68,['7.68'],['combined_training_datasets_unique.sdf']
1929,CCc1ccccc1O,O,0,0,10.2,['10.2'],['combined_training_datasets_unique.sdf']
1930,CCc1ccccn1,O,0,0,5.975,['5.975'],['combined_training_datasets_unique.sdf']
1931,CCc1cccnc1,O,0,0,5.57,['5.57'],['combined_training_datasets_unique.sdf']
1932,CCc1cccnn1,O,0,0,3.58,['3.58'],['combined_training_datasets_unique.sdf']
1933,CCc1ccnc2c1ccc1c(CC)ccnc12,O,0,0,5.6,['5.6'],['combined_training_datasets_unique.sdf']
1934,CCc1ccnc2c1ccc1cccnc12,O,0,0,5.44,['5.44'],['combined_training_datasets_unique.sdf']
1935,CCc1ccncc1,O,0,0,5.94,['5.94'],['combined_training_datasets_unique.sdf']
1936,CCc1ccnnc1C,O,0,0,4.03,['4.03'],['combined_training_datasets_unique.sdf']
1937,CCc1cnc(C(=O)[O-])cc1CC,O,0,0,6.58,['6.58'],['combined_training_datasets_unique.sdf']
1938,CCc1cnc2c(ccc3cccnc32)c1,O,0,0,4.98,['4.98'],['combined_training_datasets_unique.sdf']
1939,CCc1cncc(C)c1,O,0,0,5.2,['5.2'],['combined_training_datasets_unique.sdf']
1940,CCc1cnnc(C)c1,O,0,0,4.17,['4.17'],['combined_training_datasets_unique.sdf']
1941,CCc1nc(N)nc(N)c1-c1ccc(Cl)cc1,O,0,0,7.36,['7.36'],['combined_training_datasets_unique.sdf']
1942,CCc1nc(N)nc(N)c1-c1ccc2c(c1)N(CCCOC)C(=O)C(C)(C)O2,O,0,0,8.0,['8.0'],['combined_training_datasets_unique.sdf']
1943,CCc1nc(N)nc(N)c1-c1ccc2c(c1)N(CCCOC)C(=O)C(C)(c1cc(F)cc(F)c1)O2,O,0,0,8.0,['8.0'],['combined_training_datasets_unique.sdf']
1944,CCc1nc(N)nc(N)c1-c1ccc2c(c1)N(CCCOC)C(=O)CO2,O,0,0,8.0,['8.0'],['combined_training_datasets_unique.sdf']
1945,CCc1nc(N)nc(N)c1-c1ccc2c(c1)N(CCCOC)CCO2,O,0,0,8.0,['8.0'],['combined_training_datasets_unique.sdf']
1946,CCc1nc(N)nc(N)c1-c1ccc2c(c1)N(CCNC(C)=O)C(=O)C(C)(C)O2,O,0,0,8.0,['8.0'],['combined_training_datasets_unique.sdf']
1947,CCc1nc(N)nc(N)c1-c1ccc2c(c1)N(CCNC(C)=O)C(=O)C(C)(c1cc(F)cc(F)c1)O2,O,0,0,8.0,['8.0'],['combined_training_datasets_unique.sdf']
1948,CCc1nc2c(-c3ccc(Cl)cc3Cl)ccnc2n1C(CC)C1CC1,O,0,0,3.86,['3.86'],['combined_training_datasets_unique.sdf']
1949,CCc1nc2cc3c(cc2[nH]1)CCCC3,O,0,0,6.64,['6.64'],['combined_training_datasets_unique.sdf']
1950,CCc1nc2cc3ccccc3cc2[nH]1,O,0,0,6.14,['6.14'],['combined_training_datasets_unique.sdf']
1951,CCc1nc2ccccc2[nH]1,O,0,0,6.2,['6.2'],['combined_training_datasets_unique.sdf']
1952,CCc1nn(CCC[NH+]2CCN(c3cccc(Cl)c3)CC2)c(=O)n1CCOc1ccccc1,O,0,0,6.645,['6.645'],['combined_training_datasets_unique.sdf']
1953,CCc1nn[n-]n1,O,0,0,5.59,['5.59'],['combined_training_datasets_unique.sdf']
1954,CCc1nsc(=O)[nH]1,O,0,0,6.89,['6.89'],['combined_training_datasets_unique.sdf']
1955,CCc1oc2ccccc2c(=O)c1C(=O)c1cc(Br)c([O-])c(Br)c1,O,0,0,4.72,['4.72'],['combined_training_datasets_unique.sdf']
1956,CCc1oc2ccccc2c(=O)c1C(=O)c1cc(I)c([O-])c(I)c1,O,0,0,4.89,['4.89'],['combined_training_datasets_unique.sdf']
1957,CCc1oc2ccccc2c(=O)c1C(=O)c1ccc(O)cc1,O,0,0,7.74,['7.74'],['combined_training_datasets_unique.sdf']
1958,CCc1oc2ccccc2c1C(=O)Cc1cc(Br)c([O-])c(Br)c1,O,0,0,8.6,['8.6'],['combined_training_datasets_unique.sdf']
1959,CCc1oc2ccccc2c1C(=O)c1cc(Br)c([O-])c(Br)c1,O,0,0,4.5,['4.5'],['combined_training_datasets_unique.sdf']
1960,CCc1oc2ccccc2c1C(=O)c1cc(C)c(O)c(C)c1,O,0,0,8.5,['8.5'],['combined_training_datasets_unique.sdf']
1961,CCc1oc2ccccc2c1C(O)c1cc(Br)c([O-])c(Br)c1,O,0,0,8.8,['8.8'],['combined_training_datasets_unique.sdf']
1962,CCn1c(-c2ccc(OC)cc2)cs/c1=N/c1ccc2oc(=O)ccc2c1,O,0,0,7.63,['7.63'],['combined_training_datasets_unique.sdf']
1963,CCn1c(=O)c2[nH]c(-c3ccccc3)nc2n(CC)c1=O,O,0,0,9.1,['9.1'],['combined_training_datasets_unique.sdf']
1964,CCn1c(=O)nc2sc(S(N)(=O)=O)nn2c1=O,O,0,0,7.3,['7.3'],['combined_training_datasets_unique.sdf']
1965,CCn1c(C)c(C)c2cc(-n3ccccc3=O)nc(NCc3c(C)cccc3C)c21,O,0,0,4.0,['4.0'],['combined_training_datasets_unique.sdf']
1966,CCn1cc(C(=O)OCN(C)C(=O)OC)c(=O)c2ccc(C)nc21,O,0,0,6.0,['6.0'],['combined_training_datasets_unique.sdf']
1967,CCn1cc(C2(c3cccc(-c4cncnc4)c3)[NH+]=C(N)c3c(F)cccc32)cc(C)c1=O,O,0,0,7.7,['7.7'],['combined_training_datasets_unique.sdf']
1968,CCn1cc([C@]2(c3cccc(C#CC4CC4)c3)[NH+]=C(N)c3c(F)cccc32)cc(C)c1=O,O,0,0,7.6,['7.6'],['combined_training_datasets_unique.sdf']
1969,CCn1cc([C@]2(c3cccc(NC(=O)c4ccc(Cl)cn4)c3)[NH+]=C(N)c3c(F)cccc32)cc(C)c1=O,O,0,0,7.3,['7.3'],['combined_training_datasets_unique.sdf']
1970,CCn1ccc(=O)c([O-])c1C(C)O,O,0,0,8.755,['8.755'],['combined_training_datasets_unique.sdf']
1971,CCn1cccc([O-])c1=O,O,0,0,8.99,['8.99'],['combined_training_datasets_unique.sdf']
1972,CCn1ccnc1C,O,0,0,8.09,['8.09'],['combined_training_datasets_unique.sdf']
1973,CCn1cnc2ccccc21,O,0,0,5.66,['5.66'],['combined_training_datasets_unique.sdf']
1974,CCn1cncn1,O,0,0,2.39,['2.39'],['combined_training_datasets_unique.sdf']
1975,CCn1nc(-c2ccccc2)sc1=N,O,0,0,6.1,['6.1'],['combined_training_datasets_unique.sdf']
1976,CCn1nc(C(=O)[O-])c(=O)c2cc3c(cc21)OCO3,O,0,0,4.7,['4.7'],['combined_training_datasets_unique.sdf']
1977,CCn1nnc(CC(=O)[O-])n1,O,0,0,3.45,['3.45'],['combined_training_datasets_unique.sdf']
1978,CCn1nnnc1CC(=O)[O-],O,0,0,2.85,['2.85'],['combined_training_datasets_unique.sdf']
1979,CCn1nnnc1NC(C)=O,O,0,0,8.38,['8.38'],['combined_training_datasets_unique.sdf']
1980,CN(C(=O)N1CC(c2cc(F)ccc2F)=C[C@@]1(CO)c1ccccc1)C1CCN(CC(F)F)CC1,O,0,0,4.9,['4.9'],['combined_training_datasets_unique.sdf']
1981,CN(C(=O)N1CC(c2cc(F)ccc2F)=C[C@@]1(CO)c1ccccc1)C1CC[NH+](C)CC1,O,0,0,8.8,['8.8'],['combined_training_datasets_unique.sdf']
1982,CN(C(=O)N1CC(c2cc(F)ccc2F)=C[C@@]1(CO)c1ccccc1)C1CC[NH+](C2CC2)CC1,O,0,0,7.5,['7.5'],['combined_training_datasets_unique.sdf']
1983,CN(C(=O)N1CC(c2cc(F)ccc2F)=C[C@@]1(CO)c1ccccc1)C1CC[NH+](CC2CC2)CC1,O,0,0,9.1,['9.1'],['combined_training_datasets_unique.sdf']
1984,CN(C(=O)N1CC(c2cc(F)ccc2F)=C[C@@]1(CO)c1ccccc1)C1CC[NH+](CCF)CC1,O,0,0,7.6,['7.6'],['combined_training_datasets_unique.sdf']
1985,CN(C(=O)N1CC(c2cc(F)ccc2F)=C[C@@]1(CO)c1ccccc1)C1CC[NH2+]CC1,O,0,0,9.8,['9.8'],['combined_training_datasets_unique.sdf']
1986,CN(C(=O)N1CC(c2cc(F)ccc2F)=C[C@@]1(CO)c1ccccc1)[C@H]1CC[NH+](C)C[C@@H]1F,O,0,0,6.6,['6.6'],['combined_training_datasets_unique.sdf']
1987,CN(C(=O)N1CC(c2cc(F)ccc2F)=C[C@@]1(CO)c1ccccc1)[C@H]1CC[NH+](C)C[C@H]1F,O,0,0,7.6,['7.6'],['combined_training_datasets_unique.sdf']
1988,CN(C(=O)c1ccccc1)c1cccnc1,O,0,0,3.66,['3.66'],['combined_training_datasets_unique.sdf']
1989,CN(C(=O)c1ccccc1)c1ccncc1,O,0,0,4.68,['4.68'],['combined_training_datasets_unique.sdf']
1990,CN(C)/C=[NH+]/c1ccc(Br)cc1,O,0,0,8.1,['8.1'],['combined_training_datasets_unique.sdf']
1991,CN(C)/C=[NH+]/c1ccc(Cl)cc1,O,0,0,8.46,['8.46'],['combined_training_datasets_unique.sdf']
1992,CN(C)/C=[NH+]/c1ccc(O)cc1,O,0,0,9.41,['9.41'],['combined_training_datasets_unique.sdf']
1993,CN(C)/C=[NH+]/c1cccc(Br)c1,O,0,0,8.08,['8.08'],['combined_training_datasets_unique.sdf']
1994,CN(C)/C=[NH+]/c1cccc(Cl)c1,O,0,0,7.97,['7.97'],['combined_training_datasets_unique.sdf']
1995,CN(C)/C=[NH+]/c1ccccc1,O,0,0,9.0,['9.0'],['combined_training_datasets_unique.sdf']
1996,CN(C)/C=[NH+]/c1ccccc1Br,O,0,0,6.71,['6.71'],['combined_training_datasets_unique.sdf']
1997,CN(C)/C=[NH+]/c1ccccc1Cl,O,0,0,6.85,['6.85'],['combined_training_datasets_unique.sdf']
1998,CN(C)C(=O)C(CC[NH+]1CCC(O)(c2ccc(Cl)cc2)CC1)(c1ccccc1)c1ccccc1,O,0,0,8.855,['8.855'],['combined_training_datasets_unique.sdf']
1999,CN(C)C(=O)CS,O,0,0,8.1,['8.1'],['combined_training_datasets_unique.sdf']
2000,CN(C)C(=O)Cn1c(-c2ccccc2)c(C2CCCCC2)c2ccc(-c3noc(=O)[nH]3)cc21,O,0,0,4.8,['4.8'],['combined_training_datasets_unique.sdf']
2001,CN(C)C(=O)Cn1c(-c2ccccc2)c(C2CCCCC2)c2ccc(C(=O)[O-])cc21,O,0,0,4.8,['4.8'],['combined_training_datasets_unique.sdf']
2002,CN(C)C(=O)N1CC(c2cc(F)ccc2F)=C[C@@]1(CCCNCC(F)(F)F)c1ccccc1,O,0,0,5.2,['5.2'],['combined_training_datasets_unique.sdf']
2003,CN(C)C(=O)N1CC(c2cc(F)ccc2F)=C[C@@]1(CCCNCC(F)F)c1ccccc1,O,0,0,7.0,['7.0'],['combined_training_datasets_unique.sdf']
2004,CN(C)C(=O)N1CC(c2cc(F)ccc2F)=C[C@@]1(CCC[NH2+]CCF)c1ccccc1,O,0,0,8.8,['8.8'],['combined_training_datasets_unique.sdf']
2005,CN(C)C(=O)N1CC(c2cc(F)ccc2F)=C[C@@]1(CCC[NH3+])c1ccccc1,O,0,0,10.3,['10.3'],['combined_training_datasets_unique.sdf']
2006,CN(C)C(=O)N1N=C(c2cc(F)ccc2F)C[C@@]1(CCC[NH3+])c1ccccc1,O,0,0,10.3,['10.3'],['combined_training_datasets_unique.sdf']
2007,CN(C)C(=O)OCC(=O)[O-],O,0,0,3.01,['3.01'],['combined_training_datasets_unique.sdf']
2008,CN(C)C(=O)OCC1C2c3ccccc3C(c3ccccc32)C1C[NH+](C)C,O,0,0,8.99,['8.99'],['combined_training_datasets_unique.sdf']