,Solute SMILES,Solvent SMILES,Solute CAS,Solute IUPAC,pKa (avg),pKa (all),Source
1409,CCCC[NH3+],O,0,0,10.723333,['10.723333'],['combined_training_datasets_unique.sdf']
1410,CCCC[P+](CCCC)(CCCC)C1c2ccccc2-c2ccccc21,O,0,0,10.53,['10.53'],['combined_training_datasets_unique.sdf']
1411,CCCCc1c(-c2ccccc2)[nH][nH]c1=O,O,0,0,8.2,['8.2'],['combined_training_datasets_unique.sdf']
1412,CCCCc1c(-c2ccccc2)[nH]n(-c2ccccc2)c1=O,O,0,0,7.2,['7.2'],['combined_training_datasets_unique.sdf']
1413,CCCCc1c(C)nc(NCC)[nH]c1=O,O,0,0,8.04,['8.04'],['combined_training_datasets_unique.sdf']
1414,CCCCc1c([O-])n(-c2ccccc2)n(-c2ccccc2)c1=O,O,0,0,4.5,['4.5'],['combined_training_datasets_unique.sdf']
1415,CCCCc1cc(Cl)cc(Cl)c1O,O,0,0,8.1,['8.1'],['combined_training_datasets_unique.sdf']
1416,CCCCc1ccc(C(=O)[O-])nc1,O,0,0,5.7,['5.7'],['combined_training_datasets_unique.sdf']
1417,CCCCc1ccccc1N,O,0,0,4.26,['4.26'],['combined_training_datasets_unique.sdf']
1418,CCCCc1cccnn1,O,0,0,3.49,['3.49'],['combined_training_datasets_unique.sdf']
1419,CCCCc1nc(Cl)c(CC(=O)OC)n1Cc1ccc(NC(=O)c2ccc(Cl)cc2)cc1,O,0,0,4.5,['4.5'],['combined_training_datasets_unique.sdf']
1420,CCCCc1nc(N)c2ncsc2n1,O,0,0,3.49,['3.49'],['combined_training_datasets_unique.sdf']
1421,CCCCn1cc(C[NH2+][C@H]2[C@H](O)[C@@H](O)[C@H](O)[C@@H](O)[C@@H]2O)nn1,O,0,0,7.2,['7.2'],['combined_training_datasets_unique.sdf']
1422,CCCCn1ccnc1,O,0,0,7.14,['7.14'],['combined_training_datasets_unique.sdf']
1423,CCCCn1cnc2ccccc21,O,0,0,5.31,['5.31'],['combined_training_datasets_unique.sdf']
1424,CCCN(C)N,O,0,0,7.35,['7.35'],['combined_training_datasets_unique.sdf']
1425,CCCN(C)N(C)CCC,O,0,0,7.05,['7.05'],['combined_training_datasets_unique.sdf']
1426,CCCN(C)c1ccccc1,O,0,0,5.67,['5.67'],['combined_training_datasets_unique.sdf']
1427,CCCN(C1=[NH+]CCN1)c1c(Br)cccc1Br,O,0,0,11.0,['11.0'],['combined_training_datasets_unique.sdf']
1428,CCCN(CC)c1ccccc1,O,0,0,6.39,['6.39'],['combined_training_datasets_unique.sdf']
1429,CCCN(CCC)C(=O)c1cc(C)cc(C(=O)N[C@@H](Cc2cc(F)cc(F)c2)[C@H](O)[C@@H]2[NH2+]CCN(Cc3ccccc3)C2=O)c1,O,0,0,6.0,['6.0'],['combined_training_datasets_unique.sdf']
1430,CCCN(CCC)C(=O)c1cc(C)cc(C(=O)N[C@@H](Cc2cc(F)cc(F)c2)[C@H](O)[C@@H]2[NH2+]CN(Cc3ccccc3)C2=O)c1,O,0,0,3.6,['3.6'],['combined_training_datasets_unique.sdf']
1431,CCCN(CCC)C(=O)c1cccc(C(=O)N[C@@H](Cc2ccccc2)[C@H](O)C[NH2+]C2CC2)c1,O,0,0,8.4,['8.4'],['combined_training_datasets_unique.sdf']
1432,CCCN(CCC)C(=O)c1cccc(C(=O)N[C@@H](Cc2ccccc2)[C@H](O)[C@H]2CCC[NH2+]2)c1,O,0,0,9.6,['9.6'],['combined_training_datasets_unique.sdf']
1433,CCCN(CCC)S(=O)(=O)c1ccc(C(=O)[O-])cc1,O,0,0,3.4,['3.4'],['combined_training_datasets_unique.sdf']
1434,CCCN(CCC)c1ccccc1,O,0,0,6.13,['6.13'],['combined_training_datasets_unique.sdf']
1435,CCCN(N)CCC,O,0,0,7.0,['7.0'],['combined_training_datasets_unique.sdf']
1436,CCCN1C=CC(=CC=C2C=CC(=O)C=C2)C=C1,O,0,0,8.5,['8.5'],['combined_training_datasets_unique.sdf']
1437,CCCN=C1Nc2cccc(Cl)c2S(=O)(=O)N1,O,0,0,9.54,['9.54'],['combined_training_datasets_unique.sdf']
1438,CCCNC(=O)Cn1cccc([O-])c1=O,O,0,0,8.75,['8.75'],['combined_training_datasets_unique.sdf']
1439,CCCNC(=O)NS(=O)(=O)c1ccc(Cl)cc1,O,0,0,4.9,['4.9'],['combined_training_datasets_unique.sdf']
1440,CCCNC(=O)c1ccc(-c2ccc(-c3ccccc3)n2Cc2cccc(N)n2)cc1,O,0,0,6.86,['6.86'],['combined_training_datasets_unique.sdf']
1441,CCCNN,O,0,0,7.92,['7.92'],['combined_training_datasets_unique.sdf']
1442,CCCNc1ccccc1,O,0,0,5.12,['5.12'],['combined_training_datasets_unique.sdf']
1443,CCCNc1ncnc2c1cnn2C,O,0,0,4.25,['4.25'],['combined_training_datasets_unique.sdf']
1444,CCCOC(=O)[C@@H]([NH3+])CCC(=O)NCCSC(C)=O,O,0,0,8.8,['8.8'],['combined_training_datasets_unique.sdf']
1445,CCCOC(=O)c1ccc(N)cc1,O,0,0,2.49,['2.49'],['combined_training_datasets_unique.sdf']
1446,CCCOC(=O)c1ccc(O)cc1,O,0,0,8.3,['8.3'],['combined_training_datasets_unique.sdf']
1447,CCCOC(=O)c1ccc(OS(N)(=O)=O)cc1,O,0,0,8.03,['8.03'],['combined_training_datasets_unique.sdf']
1448,CCCOC(=S)[N-]C(C)=O,O,0,0,9.34,['9.34'],['combined_training_datasets_unique.sdf']
1449,CCCOC(C(=O)OC1CC[NH+](C)CC1)(c1ccccc1)c1ccccc1,O,0,0,6.65,['6.65'],['combined_training_datasets_unique.sdf']
1450,CCCOCCCCCCn1cc(C[NH2+][C@H]2[C@H](O)[C@@H](O)[C@H](O)[C@@H](O)[C@@H]2O)nn1,O,0,0,7.1,['7.1'],['combined_training_datasets_unique.sdf']
1451,CCCOc1ccc(-c2ccc(-c3ccccc3Cl)n2Cc2cccc(N)n2)cc1,O,0,0,6.86,['6.86'],['combined_training_datasets_unique.sdf']
1452,CCCOc1ccc(C(=O)[O-])cc1,O,0,0,4.63,['4.63'],['combined_training_datasets_unique.sdf']
1453,CCCOc1ccc(O)cc1,O,0,0,10.23,['10.23'],['combined_training_datasets_unique.sdf']
1454,CCCOc1ccccc1C(=O)[O-],O,0,0,4.24,['4.24'],['combined_training_datasets_unique.sdf']
1455,CCCOc1noc2c1C[NH2+]CC2,O,0,0,7.6,['7.6'],['combined_training_datasets_unique.sdf']
1456,CCCS,O,0,0,10.56,['10.56'],['combined_training_datasets_unique.sdf']
1457,CCCS(=O)(=O)n1c2c(c3cc(C(=O)N4CCC(C)CC4)ccc31)C[NH+](C1CCOC1)CC2,O,0,0,5.8,['5.8'],['combined_training_datasets_unique.sdf']
1458,CCCS(=O)(=O)n1c2c(c3cc(C(=O)N4CCC(C)CC4)ccc31)C[NH+](C1CCOCC1)CC2,O,0,0,7.3,['7.3'],['combined_training_datasets_unique.sdf']
1459,CCCS(=O)[O-],O,0,0,2.35,['2.35'],['combined_training_datasets_unique.sdf']
1460,CCCSC(=N)c1ccccc1,O,0,0,8.1,['8.1'],['combined_training_datasets_unique.sdf']
1461,CCCSC(=O)CCCc1cnc[nH]1,O,0,0,7.55,['7.55'],['combined_training_datasets_unique.sdf']
1462,CCCSC(C)C(=O)[O-],O,0,0,3.82,['3.82'],['combined_training_datasets_unique.sdf']
1463,CCCSC(N=O)C(=O)c1ccc(Br)cc1,O,0,0,8.45,['8.45'],['combined_training_datasets_unique.sdf']
1464,CCCSCC(=O)[O-],O,0,0,3.77,['3.77'],['combined_training_datasets_unique.sdf']
1465,CCCSCC[NH+](CC)CC,O,0,0,8.83,['8.83'],['combined_training_datasets_unique.sdf']
1466,CCCSCC[NH3+],O,0,0,9.43,['9.43'],['combined_training_datasets_unique.sdf']
1467,CCCSS/C(CCO)=C(/C)N(C=O)Cc1cnc(C)nc1N,O,0,0,5.52,['5.52'],['combined_training_datasets_unique.sdf']
1468,CCC[C@@H]1C[C@@H](C(=O)N[C@H]([C@@H](C)O)[C@H]2O[C@H](SC)[C@H](O)[C@@H](O)[C@H]2O)[NH+](C)C1,O,0,0,7.65,['7.65'],['combined_training_datasets_unique.sdf']
1469,CCC[NH+](C)C,O,0,0,9.62,['9.62'],['combined_training_datasets_unique.sdf']
1470,CCC[NH+](CC(C)O)CC(C)O,O,0,0,8.9,['8.9'],['combined_training_datasets_unique.sdf']
1471,CCC[NH+](CC(C)O)CC(O)CC,O,0,0,9.0,['9.0'],['combined_training_datasets_unique.sdf']
1472,CCC[NH+](CC(O)CC)CC(O)CC,O,0,0,9.0,['9.0'],['combined_training_datasets_unique.sdf']
1473,CCC[NH+](CC)C(CC)C(=O)Nc1c(C)cccc1C,O,0,0,6.62,['6.62'],['combined_training_datasets_unique.sdf']
1474,CCC[NH+](CCC)CC(=O)NC1c2ccccc2-c2ccccc21,O,0,0,7.28,['7.28'],['combined_training_datasets_unique.sdf']
1475,CCC[NH+](CCC)CC(=O)Nc1c(C)cccc1C,O,0,0,7.68,['7.68'],['combined_training_datasets_unique.sdf']
1476,CCC[NH+](CCC)CCC,O,0,0,10.47,['10.47'],['combined_training_datasets_unique.sdf']
1477,CCC[NH+](CCC)CCCNC(=O)CN=O,O,0,0,9.54,['9.54'],['combined_training_datasets_unique.sdf']
1478,CCC[NH+](CCC)CCc1c[nH]c2ccccc12,O,0,0,8.6,['8.6'],['combined_training_datasets_unique.sdf']
1479,CCC[NH+](CCC)Cc1no[n+]([O-])c1C#N,O,0,0,5.46,['5.46'],['combined_training_datasets_unique.sdf']
1480,CCC[NH+](CCCl)CCCl,O,0,0,6.7,['6.7'],['combined_training_datasets_unique.sdf']
1481,CCC[NH+](CCO)CC(C)O,O,0,0,8.9,['8.9'],['combined_training_datasets_unique.sdf']
1482,CCC[NH+](CCO)CC(O)CC,O,0,0,9.0,['9.0'],['combined_training_datasets_unique.sdf']
1483,CCC[NH+](CCc1c[nH]c2ccccc12)Cc1ccc(CCC(=O)N=O)cc1,O,0,0,7.9,['7.9'],['combined_training_datasets_unique.sdf']
1484,CCC[NH+]1CCCCC1,O,0,0,10.45,['10.45'],['combined_training_datasets_unique.sdf']
1485,CCC[NH+]1CCCC[C@H]1C(=O)Nc1c(C)cccc1C,O,0,0,8.07,['8.07'],['combined_training_datasets_unique.sdf']
1486,CCC[NH+]1CCN(c2ccc(C#N)cc2)CC1,O,0,0,7.78,['7.78'],['combined_training_datasets_unique.sdf']
1487,CCC[NH+]1CCN(c2ccc(C(F)(F)F)cc2)CC1,O,0,0,7.84,['7.84'],['combined_training_datasets_unique.sdf']
1488,CCC[NH+]1CCN(c2ccc(C(N)=O)cc2)CC1,O,0,0,7.84,['7.84'],['combined_training_datasets_unique.sdf']
1489,CCC[NH+]1CCN(c2ccc(C)cc2)CC1,O,0,0,7.92,['7.92'],['combined_training_datasets_unique.sdf']
1490,CCC[NH+]1CCN(c2ccc(Cl)cc2)CC1,O,0,0,7.83,['7.83'],['combined_training_datasets_unique.sdf']
1491,CCC[NH+]1CCN(c2ccc(OC)cc2)CC1,O,0,0,7.88,['7.88'],['combined_training_datasets_unique.sdf']
1492,CCC[NH+]1CCN(c2cccc(C#N)c2)CC1,O,0,0,7.67,['7.67'],['combined_training_datasets_unique.sdf']
1493,CCC[NH+]1CCN(c2cccc(C(F)(F)F)c2)CC1,O,0,0,7.81,['7.81'],['combined_training_datasets_unique.sdf']
1494,CCC[NH+]1CCN(c2cccc(C(N)=O)c2)CC1,O,0,0,7.76,['7.76'],['combined_training_datasets_unique.sdf']
1495,CCC[NH+]1CCN(c2cccc(C)c2)CC1,O,0,0,7.83,['7.83'],['combined_training_datasets_unique.sdf']
1496,CCC[NH+]1CCN(c2cccc(Cl)c2)CC1,O,0,0,7.83,['7.83'],['combined_training_datasets_unique.sdf']
1497,CCC[NH+]1CCN(c2cccc(OC)c2)CC1,O,0,0,7.86,['7.86'],['combined_training_datasets_unique.sdf']
1498,CCC[NH+]1CCN(c2ccccc2)CC1,O,0,0,7.96,['7.96'],['combined_training_datasets_unique.sdf']
1499,CCC[NH+]1CCN(c2ccccc2C#N)CC1,O,0,0,7.92,['7.92'],['combined_training_datasets_unique.sdf']
1500,CCC[NH+]1CCN(c2ccccc2C(F)(F)F)CC1,O,0,0,8.8,['8.8'],['combined_training_datasets_unique.sdf']
1501,CCC[NH+]1CCN(c2ccccc2C(N)=O)CC1,O,0,0,8.14,['8.14'],['combined_training_datasets_unique.sdf']
1502,CCC[NH+]1CCN(c2ccccc2C)CC1,O,0,0,8.39,['8.39'],['combined_training_datasets_unique.sdf']
1503,CCC[NH+]1CCN(c2ccccc2Cl)CC1,O,0,0,8.07,['8.07'],['combined_training_datasets_unique.sdf']
1504,CCC[NH+]1CCN(c2ccccc2OC)CC1,O,0,0,8.29,['8.29'],['combined_training_datasets_unique.sdf']
1505,CCC[NH+]1C[C@H](CSC)C[C@@H]2c3cccc4[nH]cc(c34)C[C@H]21,O,0,0,8.78,['8.78'],['combined_training_datasets_unique.sdf']
1506,CCC[NH+]=C(N)[NH+]=C(N)Nc1ccc(Cl)cc1,O,0,0,10.78,['10.78'],['combined_training_datasets_unique.sdf']
1507,CCC[NH+]=C1Nc2ccccc2C(C)N1,O,0,0,10.7,['10.7'],['combined_training_datasets_unique.sdf']
1508,CCC[NH2+]C(C)(C)P(=O)(OCC)OCC,O,0,0,6.99,['6.99'],['combined_training_datasets_unique.sdf']
1509,CCC[NH2+]C(C)C,O,0,0,10.96,['10.96'],['combined_training_datasets_unique.sdf']
1510,CCC[NH2+]C(C)C(=O)Nc1ccccc1C,O,0,0,7.673333,['7.673333'],['combined_training_datasets_unique.sdf']
1511,CCC[NH2+]C1c2ccccc2C=Cc2ccccc21,O,0,0,8.9,['8.9'],['combined_training_datasets_unique.sdf']
1512,CCC[NH2+]CC(=O)Nc1c(C)cccc1C,O,0,0,8.01,['8.01'],['combined_training_datasets_unique.sdf']
1513,CCC[NH2+]CC(O)COc1ccccc1C(=O)CCc1ccccc1,O,0,0,9.27,['9.27'],['combined_training_datasets_unique.sdf']
1514,CCC[NH2+]CCC,O,0,0,11.02,['11.02'],['combined_training_datasets_unique.sdf']
1515,CCC[NH2+]Cc1ccc(C)cc1,O,0,0,9.98,['9.98'],['combined_training_datasets_unique.sdf']
1516,CCC[NH2+]Cc1ccccc1,O,0,0,9.62,['9.62'],['combined_training_datasets_unique.sdf']
1517,CCC[NH3+],O,0,0,10.675,['10.675'],['combined_training_datasets_unique.sdf']
1518,CCC[n+]1cccc2c(O)cccc21,O,0,0,6.06,['6.06'],['combined_training_datasets_unique.sdf']
1519,CCC[n+]1cccc2cc([O-])ccc21,O,0,0,7.08,['7.08'],['combined_training_datasets_unique.sdf']
1520,CCCc1[nH]cc[nH+]1,O,0,0,8.02,['8.02'],['combined_training_datasets_unique.sdf']
1521,CCCc1c(-c2ccccc2)[nH][nH]c1=O,O,0,0,8.0,['8.0'],['combined_training_datasets_unique.sdf']
1522,CCCc1c(-c2ccccc2)[nH]n(-c2ccccc2)c1=O,O,0,0,7.0,['7.0'],['combined_training_datasets_unique.sdf']
1523,CCCc1cc(Cl)cc(Cl)c1O,O,0,0,8.1,['8.1'],['combined_training_datasets_unique.sdf']
1524,CCCc1ccc(C)nn1,O,0,0,4.25,['4.25'],['combined_training_datasets_unique.sdf']
1525,CCCc1ccc(CCC[NH+](C)C)cc1,O,0,0,10.54,['10.54'],['combined_training_datasets_unique.sdf']
1526,CCCc1ccc(O)c(-c2cc(CCC)ccc2O)c1,O,0,0,9.3,['9.3'],['combined_training_datasets_unique.sdf']
1527,CCCc1ccccc1N,O,0,0,4.36,['4.36'],['combined_training_datasets_unique.sdf']
1528,CCCc1ccccn1,O,0,0,5.97,['5.97'],['combined_training_datasets_unique.sdf']
1529,CCCc1cccnn1,O,0,0,3.59,['3.59'],['combined_training_datasets_unique.sdf']
1530,CCCc1ccnc2c1ccc1cccnc12,O,0,0,5.45,['5.45'],['combined_training_datasets_unique.sdf']
1531,CCCc1nc2ccc(OCC)cc2[nH]1,O,0,0,6.12,['6.12'],['combined_training_datasets_unique.sdf']
1532,CCCc1ncnc2c(O)cccc12,O,0,0,8.82,['8.82'],['combined_training_datasets_unique.sdf']
1533,CCCc1nn[n-]n1,O,0,0,5.61,['5.61'],['combined_training_datasets_unique.sdf']
1534,CCCc1oc2ccccc2c(=O)c1C(=O)c1cc(I)c([O-])c(I)c1,O,0,0,4.89,['4.89'],['combined_training_datasets_unique.sdf']
1535,CCCc1oc2ccccc2c(=O)c1C(=O)c1ccc(O)cc1,O,0,0,7.74,['7.74'],['combined_training_datasets_unique.sdf']
1536,CCCn1ccnc1C,O,0,0,8.2,['8.2'],['combined_training_datasets_unique.sdf']
1537,CCCn1ccnc1C=O,O,0,0,5.15,['5.15'],['combined_training_datasets_unique.sdf']
1538,CCCn1ccnc1CO,O,0,0,7.04,['7.04'],['combined_training_datasets_unique.sdf']
1539,CCCn1cnc2ccccc21,O,0,0,5.46,['5.46'],['combined_training_datasets_unique.sdf']
1540,CCCn1cncn1,O,0,0,2.36,['2.36'],['combined_training_datasets_unique.sdf']
1541,CCN(C(=O)Cc1ccc(OC)cc1)C1CC[NH+](C(C)C[C@H](NC(=O)C2CCC2)c2ccccc2)CC1,O,0,0,7.8,['7.8'],['combined_training_datasets_unique.sdf']
1542,CCN(C(=O)Cc1ccc(S(C)(=O)=O)cc1)C1CC[NH+](CC[C@@H](c2cc(F)cc(F)c2)C2CCN(S(C)(=O)=O)CC2)CC1,O,0,0,8.4,['8.4'],['combined_training_datasets_unique.sdf']
1543,CCN(C(=O)Cc1ccc(S(C)(=O)=O)cc1)C1CC[NH+](CC[C@H](c2ccc(S(C)(=O)=O)cc2)c2cc(F)cc(F)c2)CC1,O,0,0,7.5,['7.5'],['combined_training_datasets_unique.sdf']
1544,CCN(C)C(=O)Oc1cccc([C@H](C)[NH+](C)C)c1,O,0,0,8.99,['8.99'],['combined_training_datasets_unique.sdf']
1545,CCN(C)C(=O)[C@H]1C[C@@H](c2ccc(C[NH+]3CCCC3)c(F)c2)C1,O,0,0,9.3,['9.3'],['combined_training_datasets_unique.sdf']
1546,CCN(C)N,O,0,0,7.3,['7.3'],['combined_training_datasets_unique.sdf']
1547,CCN(C)N(C)C,O,0,0,6.38,['6.38'],['combined_training_datasets_unique.sdf']
1548,CCN(C)N(C)CC,O,0,0,6.8,['6.8'],['combined_training_datasets_unique.sdf']
1549,CCN(C)N(CC)CC,O,0,0,7.3,['7.3'],['combined_training_datasets_unique.sdf']
1550,CCN(C)NC,O,0,0,6.85,['6.85'],['combined_training_datasets_unique.sdf']
1551,CCN(C)c1ccccc1,O,0,0,6.02,['6.02'],['combined_training_datasets_unique.sdf']
1552,CCN(C1=[NH+]CCN1)c1c(Br)cccc1Br,O,0,0,11.1,['11.1'],['combined_training_datasets_unique.sdf']
1553,CCN(CC)C(=O)C1(c2ccccc2)CC1C[NH3+],O,0,0,9.5,['9.5'],['combined_training_datasets_unique.sdf']
1554,CCN(CC)C(=O)NO,O,0,0,10.8,['10.8'],['combined_training_datasets_unique.sdf']
1555,CCN(CC)C(=O)N[C@H]1C[C@@H]2c3cccc4[nH]cc(c34)C[C@H]2[NH+](C)C1,O,0,0,6.8,['6.8'],['combined_training_datasets_unique.sdf']
1556,CCN(CC)C(=O)[C@@H]1C=C2c3cccc4[nH]cc(c34)C[C@H]2[NH+](C)C1,O,0,0,7.8,['7.8'],['combined_training_datasets_unique.sdf']
1557,CCN(CC)C(=O)[C@@]1(c2ccc3c(c2)OCO3)C[C@H]1C[NH3+],O,0,0,9.6,['9.6'],['combined_training_datasets_unique.sdf']
1558,CCN(CC)C(=O)[C@@]1(c2ccccc2)C[C@H]1C[NH3+],O,0,0,9.6,['9.6'],['combined_training_datasets_unique.sdf']
1559,CCN(CC)C(=O)[C@]1(c2ccccc2)C[C@@H]1C[NH3+],O,0,0,9.7,['9.7'],['combined_training_datasets_unique.sdf']
1560,CCN(CC)C(=O)[C@]1(c2ccccc2)C[C@H]1C[NH3+],O,0,0,9.6,['9.6'],['combined_training_datasets_unique.sdf']
1561,CCN(CC)C(=O)c1cn2c(C)c(C)nc2c2c1CCC(c1ccccc1)O2,O,0,0,6.75,['6.75'],['combined_training_datasets_unique.sdf']
1562,CCN(CC)C(=S)S,O,0,0,3.95,['3.95'],['combined_training_datasets_unique.sdf']
1563,CCN(CC)CC#N,O,0,0,4.18,['4.18'],['combined_training_datasets_unique.sdf']
1564,CCN(CC)CCC#N,O,0,0,7.62,['7.62'],['combined_training_datasets_unique.sdf']
1565,CCN(CC)CCS(=O)(=O)c1ccc(OC)c(OC)c1OC,O,0,0,7.41,['7.41'],['combined_training_datasets_unique.sdf']
1566,CCN(CC)CC[NH2+]C(N=O)c1nc(-c2ccccc2)no1,O,0,0,9.85,['9.85'],['combined_training_datasets_unique.sdf']
1567,CCN(CC)N(C)C,O,0,0,6.88,['6.88'],['combined_training_datasets_unique.sdf']
1568,CCN(CC)N(CC)CC,O,0,0,7.31,['7.31'],['combined_training_datasets_unique.sdf']
1569,CCN(CC)NC,O,0,0,7.14,['7.14'],['combined_training_datasets_unique.sdf']
1570,CCN(CC)S(=O)(=O)c1ccccc1C(=O)[O-],O,0,0,2.96,['2.96'],['combined_training_datasets_unique.sdf']
1571,CCN(CC)S(=O)(=O)c1ccsc1C(=O)[O-],O,0,0,2.77,['2.77'],['combined_training_datasets_unique.sdf']
1572,CCN(CC)c1ccc(C)c2nc(-c3c(OC)cc(COC)cc3OC)c(C)cc12,O,0,0,5.86,['5.86'],['combined_training_datasets_unique.sdf']
1573,CCN(CC)c1ccc(C)cc1,O,0,0,7.18,['7.18'],['combined_training_datasets_unique.sdf']
1574,CCN(CC)c1ccc(OC)c2nc(-c3c(OC)cc(COC)cc3OC)c(C)cc12,O,0,0,6.01,['6.01'],['combined_training_datasets_unique.sdf']
1575,CCN(CC)c1ccccc1,O,0,0,6.6,['6.6'],['combined_training_datasets_unique.sdf']
1576,CCN(CC)c1ccccc1C,O,0,0,7.18,['7.18'],['combined_training_datasets_unique.sdf']
1577,CCN(CC)c1ccccn1,O,0,0,7.32,['7.32'],['combined_training_datasets_unique.sdf']
1578,CCN(CC)c1nn[n-]n1,O,0,0,6.33,['6.33'],['combined_training_datasets_unique.sdf']
1579,CCN(CCC#N)CCC#N,O,0,0,4.55,['4.55'],['combined_training_datasets_unique.sdf']
1580,CCN(CCC[NH+]1CCc2cc(OC)ccc2C1)S(=O)(=O)c1ccc(C)cc1,O,0,0,7.4,['7.4'],['combined_training_datasets_unique.sdf']
1581,CCN(CCC[NH+]1CCc2cc(OC)ccc2C1)S(=O)(=O)c1ccc(OC)cc1,O,0,0,7.4,['7.4'],['combined_training_datasets_unique.sdf']
1582,CCN(CCC[NH+]1CCc2cc(OC)ccc2C1)S(=O)(=O)c1cccc2ccccc12,O,0,0,7.4,['7.4'],['combined_training_datasets_unique.sdf']
1583,CCN(CCC[NH+]1CCc2cc(OC)ccc2C1)S(=O)(=O)c1ccccc1,O,0,0,7.4,['7.4'],['combined_training_datasets_unique.sdf']
1584,CCN(Cc1cc(C(F)(F)F)ccc1-c1cc(CC(=O)[O-])n2cccnc12)C(=O)C1CC1,O,0,0,3.7,['3.7'],['combined_training_datasets_unique.sdf']
1585,CCN(Cc1cc(C(F)(F)F)ccc1-c1nn(CC(=O)[O-])c2ccccc12)C(=O)C1CC1,O,0,0,2.8,['2.8'],['combined_training_datasets_unique.sdf']
1586,CCN(N)CC,O,0,0,7.63,['7.63'],['combined_training_datasets_unique.sdf']
1587,CCN([O-])CC,O,0,0,5.62,['5.62'],['combined_training_datasets_unique.sdf']
1588,CCN(c1ccccc1)C(C)(C)C,O,0,0,8.02,['8.02'],['combined_training_datasets_unique.sdf']
1589,CCN1CNS(=O)(=O)c2cc(Cl)ccc21,O,0,0,9.33,['9.33'],['combined_training_datasets_unique.sdf']
1590,CCN=S1(=O)NC(=O)c2ccccc21,O,0,0,6.9,['6.9'],['combined_training_datasets_unique.sdf']
1591,CCNC(=O)C1CCCC[NH2+]1,O,0,0,8.6,['8.6'],['combined_training_datasets_unique.sdf']
1592,CCNC(=O)CS,O,0,0,8.14,['8.14'],['combined_training_datasets_unique.sdf']
1593,CCNC(=O)[C@H]1C[C@@](F)(c2ccc(C[NH+]3CCCC3)c(F)c2)C1,O,0,0,9.2,['9.2'],['combined_training_datasets_unique.sdf']
1594,CCNC(=O)c1ccc(-c2ccc(-c3ccccc3)n2Cc2cccc(N)n2)cc1,O,0,0,6.86,['6.86'],['combined_training_datasets_unique.sdf']
1595,CCNC(=O)c1nc(OC)cc(N(C)C)n1,O,0,0,2.9,['2.9'],['combined_training_datasets_unique.sdf']
1596,CCNC(=S)OC(C)C,O,0,0,11.52,['11.52'],['combined_training_datasets_unique.sdf']
1597,CCNN,O,0,0,7.95,['7.95'],['combined_training_datasets_unique.sdf']
1598,CCNN(C)C,O,0,0,6.58,['6.58'],['combined_training_datasets_unique.sdf']
1599,CCNN(C)CC,O,0,0,6.81,['6.81'],['combined_training_datasets_unique.sdf']
1600,CCNN(CC)CC,O,0,0,7.08,['7.08'],['combined_training_datasets_unique.sdf']
1601,CCNNC,O,0,0,7.5,['7.5'],['combined_training_datasets_unique.sdf']
1602,CCNNCC,O,0,0,7.66,['7.66'],['combined_training_datasets_unique.sdf']
1603,CCNc1cc(-c2nc(N)n[nH]2)ccn1,O,0,0,4.485,['4.485'],['combined_training_datasets_unique.sdf']
1604,CCNc1ccc(C)cc1,O,0,0,5.72,['5.72'],['combined_training_datasets_unique.sdf']
1605,CCNc1cccc2ccccc12,O,0,0,4.19,['4.19'],['combined_training_datasets_unique.sdf']
1606,CCNc1ccccc1,O,0,0,5.29,['5.29'],['combined_training_datasets_unique.sdf']
1607,CCNc1ccccc1C,O,0,0,4.92,['4.92'],['combined_training_datasets_unique.sdf']
1608,CCNc1ncnc2c1cnn2C,O,0,0,4.24,['4.24'],['combined_training_datasets_unique.sdf']
1609,CCNc1nn[n-]n1,O,0,0,6.12,['6.12'],['combined_training_datasets_unique.sdf']
1610,CCOC(=O)/C=C(/C)O,O,0,0,9.51,['9.51'],['combined_training_datasets_unique.sdf']
1611,CCOC(=O)C(C)[NH3+],O,0,0,7.8,['7.8'],['combined_training_datasets_unique.sdf']
1612,CCOC(=O)C(Cc1ccc(C)cc1)=C(C)O,O,0,0,11.88,['11.88'],['combined_training_datasets_unique.sdf']
1613,CCOC(=O)C(Cc1cccc(C)c1)=C(C)O,O,0,0,11.87,['11.87'],['combined_training_datasets_unique.sdf']
1614,CCOC(=O)C(Cc1ccccc1)=C(C)O,O,0,0,11.81,['11.81'],['combined_training_datasets_unique.sdf']
1615,CCOC(=O)C(N=O)=C(C)O,O,0,0,7.2,['7.2'],['combined_training_datasets_unique.sdf']
1616,CCOC(=O)C([NH3+])CC,O,0,0,7.71,['7.71'],['combined_training_datasets_unique.sdf']