,Solute SMILES,Solvent SMILES,Solute CAS,Solute IUPAC,pKa (avg),pKa (all),Source
3339,Cc1cc(-c2ccccc2)n[n+](CCN2CCOCC2)c1N,O,0,0,4.84,['4.84'],['combined_training_datasets_unique.sdf']
3340,Cc1cc(-c2ccccc2)nn2cc(CN3CCOCC3)[nH+]c12,O,0,0,6.3,['6.3'],['combined_training_datasets_unique.sdf']
3341,Cc1cc(-c2ccccc2)nn2ccnc12,O,0,0,4.84,['4.84'],['combined_training_datasets_unique.sdf']
3342,Cc1cc(/C=C/C#N)cc(C)c1Nc1ccnc(Nc2ccc(C#N)cc2)n1,O,0,0,5.6,['5.6'],['combined_training_datasets_unique.sdf']
3343,Cc1cc(=O)[nH][nH]1,O,0,0,10.9,['10.9'],['combined_training_datasets_unique.sdf']
3344,Cc1cc(=O)[nH]c(=O)[nH]1,O,0,0,9.29,['9.29'],['combined_training_datasets_unique.sdf']
3345,Cc1cc(=O)[nH]c(=S)[nH]1,O,0,0,7.73,['7.73'],['combined_training_datasets_unique.sdf']
3346,Cc1cc(=O)[nH]c2c1CCO2,O,0,0,8.44,['8.44'],['combined_training_datasets_unique.sdf']
3347,Cc1cc(=O)c([O-])ccc1Br,O,0,0,6.6,['6.6'],['combined_training_datasets_unique.sdf']
3348,Cc1cc(=O)n(-c2ccccc2)[nH]1,O,0,0,9.1,['9.1'],['combined_training_datasets_unique.sdf']
3349,Cc1cc(=O)n(C)cn1,O,0,0,2.1,['2.1'],['combined_training_datasets_unique.sdf']
3350,Cc1cc(=O)n(C)n1-c1ccccc1,O,0,0,2.4,['2.4'],['combined_training_datasets_unique.sdf']
3351,Cc1cc(=O)n2[nH]cnc2n1,O,0,0,6.19,['6.19'],['combined_training_datasets_unique.sdf']
3352,Cc1cc(=O)oc2c(F)c(O)ccc12,O,0,0,6.4,['6.4'],['combined_training_datasets_unique.sdf']
3353,Cc1cc(=O)oc2c(F)c([O-])c(F)c(F)c12,O,0,0,4.2,['4.2'],['combined_training_datasets_unique.sdf']
3354,Cc1cc(=O)oc2c(F)c([O-])c(F)cc12,O,0,0,4.7,['4.7'],['combined_training_datasets_unique.sdf']
3355,Cc1cc(=O)oc2cc(O)c(Cl)cc12,O,0,0,6.1,['6.1'],['combined_training_datasets_unique.sdf']
3356,Cc1cc(=O)oc2cc(O)c(F)cc12,O,0,0,6.4,['6.4'],['combined_training_datasets_unique.sdf']
3357,Cc1cc(=O)oc2cc(O)cc(F)c12,O,0,0,5.9,['5.9'],['combined_training_datasets_unique.sdf']
3358,Cc1cc(=O)oc2cc(O)ccc12,O,0,0,7.8,['7.8'],['combined_training_datasets_unique.sdf']
3359,Cc1cc(=O)oc2cc(OS(N)(=O)=O)ccc12,O,0,0,8.0,['8.0'],['combined_training_datasets_unique.sdf']
3360,Cc1cc(=O)oc2cc(O[C@@H]3O[C@H](C(=O)[O-])[C@@H](O)[C@H](O)[C@H]3O)ccc12,O,0,0,2.82,['2.82'],['combined_training_datasets_unique.sdf']
3361,Cc1cc(=O)oc2ccc(O)cc12,O,0,0,9.14,['9.14'],['combined_training_datasets_unique.sdf']
3362,Cc1cc(=O)oc2cccc(O)c12,O,0,0,8.26,['8.26'],['combined_training_datasets_unique.sdf']
3363,Cc1cc(Br)cc(Br)c1O,O,0,0,7.6,['7.6'],['combined_training_datasets_unique.sdf']
3364,Cc1cc(Br)cc(C)c1N,O,0,0,3.54,['3.54'],['combined_training_datasets_unique.sdf']
3365,Cc1cc(Br)cc(C)c1N(C)C,O,0,0,4.36,['4.36'],['combined_training_datasets_unique.sdf']
3366,Cc1cc(Br)cc(C)c1NC1=[NH+]CCN1,O,0,0,10.21,['10.21'],['combined_training_datasets_unique.sdf']
3367,Cc1cc(Br)ccc1C(=O)[O-],O,0,0,3.77,['3.77'],['combined_training_datasets_unique.sdf']
3368,Cc1cc(Br)ccc1N,O,0,0,3.58,['3.58'],['combined_training_datasets_unique.sdf']
3369,Cc1cc(C#N)cc(C)c1Nc1ccnc(Nc2ccc(C#N)cc2)n1,O,0,0,5.1,['5.1'],['combined_training_datasets_unique.sdf']
3370,Cc1cc(C#N)cc(C)c1Oc1nc(Nc2ccc(C#N)cc2)nc(N)c1Br,O,0,0,3.5,['3.5'],['combined_training_datasets_unique.sdf']
3371,Cc1cc(C#N)cc(C)c1[O-],O,0,0,8.27,['8.27'],['combined_training_datasets_unique.sdf']
3372,Cc1cc(C(=O)N2CCCC2c2ccc(-c3cccc(Cl)c3)nc2)no1,O,0,0,3.5,['3.5'],['combined_training_datasets_unique.sdf']
3373,Cc1cc(C(=O)N2CCCC2c2cnc(-c3cccc(Cl)c3)cc2C)no1,O,0,0,4.2,['4.2'],['combined_training_datasets_unique.sdf']
3374,Cc1cc(C(=O)Nc2ccc(N3CC[C@H]([NH+]4CCC[C@@H]4C)C3)cc2C)on1,O,0,0,10.1,['10.1'],['combined_training_datasets_unique.sdf']
3375,Cc1cc(C(=O)[O-])c(C)o1,O,0,0,4.64,['4.64'],['combined_training_datasets_unique.sdf']
3376,Cc1cc(C(=O)[O-])c[nH]1,O,0,0,5.35,['5.35'],['combined_training_datasets_unique.sdf']
3377,Cc1cc(C(=O)[O-])ccc1Br,O,0,0,4.03,['4.03'],['combined_training_datasets_unique.sdf']
3378,Cc1cc(C(=O)[O-])ccc1Cl,O,0,0,4.07,['4.07'],['combined_training_datasets_unique.sdf']
3379,Cc1cc(C(=O)[O-])cs1,O,0,0,4.24,['4.24'],['combined_training_datasets_unique.sdf']
3380,Cc1cc(C(=O)[O-])n[nH]1,O,0,0,3.86,['3.86'],['combined_training_datasets_unique.sdf']
3381,Cc1cc(C(C)(C)C)cc(C)c1C(=O)[O-],O,0,0,3.44,['3.44'],['combined_training_datasets_unique.sdf']
3382,Cc1cc(C(C)(C)C)cc(C)c1CC1=[NH+]CCN1,O,0,0,10.2,['10.2'],['combined_training_datasets_unique.sdf']
3383,Cc1cc(C(C)C)cc(C)c1O,O,0,0,10.9,['10.9'],['combined_training_datasets_unique.sdf']
3384,Cc1cc(C(C)C)ccc1O,O,0,0,10.56,['10.56'],['combined_training_datasets_unique.sdf']
3385,Cc1cc(C(F)(F)F)ccc1-c1cccc2cc(S(=O)(=O)Nc3ncns3)ccc12,O,0,0,3.6,['3.6'],['combined_training_datasets_unique.sdf']
3386,Cc1cc(C)[nH]n1,O,0,0,4.32,['4.32'],['combined_training_datasets_unique.sdf']
3387,Cc1cc(C)c(/N=N/c2c(C)cc(O)cc2C)c(C)c1,O,0,0,9.1,['9.1'],['combined_training_datasets_unique.sdf']
3388,Cc1cc(C)c(C(C(=O)[O-])c2ccccc2)c(C)c1,O,0,0,4.0,['4.0'],['combined_training_datasets_unique.sdf']
3389,Cc1cc(C)c(C(C)C)cc1O,O,0,0,10.76,['10.76'],['combined_training_datasets_unique.sdf']
3390,Cc1cc(C)c(C)c(C(=O)[O-])c1C,O,0,0,3.43,['3.43'],['combined_training_datasets_unique.sdf']
3391,Cc1cc(C)c(C)c(N)c1C,O,0,0,4.3,['4.3'],['combined_training_datasets_unique.sdf']
3392,Cc1cc(C)c(C)c(Nc2ccccc2CC(=O)[O-])c1C,O,0,0,4.2,['4.2'],['combined_training_datasets_unique.sdf']
3393,Cc1cc(C)c(C)c(O)c1,O,0,0,10.64,['10.64'],['combined_training_datasets_unique.sdf']
3394,Cc1cc(C)c(C)nn1,O,0,0,4.81,['4.81'],['combined_training_datasets_unique.sdf']
3395,Cc1cc(C)c(CO)c(C)n1,O,0,0,7.1,['7.1'],['combined_training_datasets_unique.sdf']
3396,Cc1cc(C)c(N)c(C)c1,O,0,0,4.37,['4.37'],['combined_training_datasets_unique.sdf']
3397,Cc1cc(C)c(NC2=[NH+]CCN2)c(C)c1,O,0,0,10.78,['10.78'],['combined_training_datasets_unique.sdf']
3398,Cc1cc(C)c(NC2=[NH+]CCN2)c(Cl)c1,O,0,0,9.59,['9.59'],['combined_training_datasets_unique.sdf']
3399,Cc1cc(C)c(Nc2ccnc(Nc3ccc(C#N)cc3)n2)c(C)c1,O,0,0,5.8,['5.8'],['combined_training_datasets_unique.sdf']
3400,Cc1cc(C)c(Nc2nc(Cl)cn([C@H](C)C3CC3)c2=O)c(C)n1,O,0,0,7.9,['7.9'],['combined_training_datasets_unique.sdf']
3401,Cc1cc(C)c(Nc2nc(N)nc(Nc3ccc(C#N)cc3)n2)c(C)c1,O,0,0,3.8,['3.8'],['combined_training_datasets_unique.sdf']
3402,Cc1cc(C)c(Nc2nc(Nc3ccc(C#N)cc3)ncc2Cl)c(C)c1,O,0,0,3.6,['3.6'],['combined_training_datasets_unique.sdf']
3403,Cc1cc(C)c(Nc2ncnc(Nc3ccc(C#N)cc3)n2)c(C)c1,O,0,0,2.6,['2.6'],['combined_training_datasets_unique.sdf']
3404,Cc1cc(C)c(O)c(C(C)C)c1,O,0,0,11.18,['11.18'],['combined_training_datasets_unique.sdf']
3405,Cc1cc(C)c(O)c(C)c1,O,0,0,10.9,['10.9'],['combined_training_datasets_unique.sdf']
3406,Cc1cc(C)c(O)cc1C,O,0,0,10.55,['10.55'],['combined_training_datasets_unique.sdf']
3407,Cc1cc(C)c2[nH+]c(C)cc(N)c2c1,O,0,0,10.4,['10.4'],['combined_training_datasets_unique.sdf']
3408,Cc1cc(C)c2ccc3c(C)cc(C)nc3c2n1,O,0,0,6.5,['6.5'],['combined_training_datasets_unique.sdf']
3409,Cc1cc(C)c2ccc3cccnc3c2n1,O,0,0,5.96,['5.96'],['combined_training_datasets_unique.sdf']
3410,Cc1cc(C)c2cccc(C)c2n1,O,0,0,4.48,['4.48'],['combined_training_datasets_unique.sdf']
3411,Cc1cc(C)c2ccccc2n1,O,0,0,5.11,['5.11'],['combined_training_datasets_unique.sdf']
3412,Cc1cc(C)c2nc(-c3ccccn3)cc(C(=O)Nc3ccc4ccccc4c3)c2c1,O,0,0,3.05,['3.05'],['combined_training_datasets_unique.sdf']
3413,Cc1cc(C)c2nc(-c3cccnc3)cc(C(=O)Nc3ccc4ccccc4c3)c2c1,O,0,0,4.3,['4.3'],['combined_training_datasets_unique.sdf']
3414,Cc1cc(C)c2nc(-c3ccncc3)cc(C(=O)Nc3ccc4ccccc4c3)c2c1,O,0,0,4.27,['4.27'],['combined_training_datasets_unique.sdf']
3415,Cc1cc(C)cc(C(=N)c2ccccc2)c1,O,0,0,6.82,['6.82'],['combined_training_datasets_unique.sdf']
3416,Cc1cc(C)cc(C(=O)[O-])c1,O,0,0,4.3,['4.3'],['combined_training_datasets_unique.sdf']
3417,Cc1cc(C)cc(N)c1,O,0,0,4.81,['4.81'],['combined_training_datasets_unique.sdf']
3418,Cc1cc(C)cc(N=c2c(=O)c3c(c(=O)c2=NS(=O)(=O)c2ccccc2)C(=N)CCC3)c1,O,0,0,8.4,['8.4'],['combined_training_datasets_unique.sdf']
3419,Cc1cc(C)cc(O)c1,O,0,0,10.13,['10.13'],['combined_training_datasets_unique.sdf']
3420,Cc1cc(C)n(-c2cc(C)[nH]n2)n1,O,0,0,2.23,['2.23'],['combined_training_datasets_unique.sdf']
3421,Cc1cc(C)n(-c2cc(C)n(C)n2)n1,O,0,0,2.19,['2.19'],['combined_training_datasets_unique.sdf']
3422,Cc1cc(C)n(C)c(=O)n1,O,0,0,4.0,['4.0'],['combined_training_datasets_unique.sdf']
3423,Cc1cc(C)n(C)n1,O,0,0,3.96,['3.96'],['combined_training_datasets_unique.sdf']
3424,Cc1cc(C)nc(C)c1,O,0,0,7.35,['7.35'],['combined_training_datasets_unique.sdf']
3425,Cc1cc(C)nc(N)c1,O,0,0,7.84,['7.84'],['combined_training_datasets_unique.sdf']
3426,Cc1cc(C)nc(N)n1,O,0,0,4.93,['4.93'],['combined_training_datasets_unique.sdf']
3427,Cc1cc(C)nc([N-]S(=O)(=O)c2ccc(N)cc2)n1,O,0,0,7.55,['7.55'],['combined_training_datasets_unique.sdf']
3428,Cc1cc(C)ncn1,O,0,0,2.7,['2.7'],['combined_training_datasets_unique.sdf']
3429,Cc1cc(C2(c3cccc(-c4cncnc4)c3)[NH+]=C(N)c3c(F)cccc32)cn(C)c1=O,O,0,0,7.4,['7.4'],['combined_training_datasets_unique.sdf']
3430,Cc1cc(C=O)c(O)c(C=O)c1,O,0,0,6.2,['6.2'],['combined_training_datasets_unique.sdf']
3431,Cc1cc(CC(=O)[O-])n(C)c1C(=O)c1ccc(Cl)cc1,O,0,0,4.7,['4.7'],['combined_training_datasets_unique.sdf']
3432,Cc1cc(CO)c(C)c(C)n1,O,0,0,7.3,['7.3'],['combined_training_datasets_unique.sdf']
3433,Cc1cc(CO)c(O)c(CO)c1,O,0,0,9.92,['9.92'],['combined_training_datasets_unique.sdf']
3434,Cc1cc(COc2cc(C)[nH]n2)n(-c2ccccc2)n1,O,0,0,2.4,['2.4'],['combined_training_datasets_unique.sdf']
3435,Cc1cc(C[NH+](C)C)ccc1OC1CN(C(=O)c2nnc(-c3ccccc3)o2)C1,O,0,0,9.3,['9.3'],['combined_training_datasets_unique.sdf']
3436,Cc1cc(Cc2ccc(Cl)c(Oc3cc(C#N)cc(C#N)c3)c2F)n[nH]c1=O,O,0,0,10.5,['10.5'],['combined_training_datasets_unique.sdf']
3437,Cc1cc(Cl)c(NC2=[NH+]CCN2)c(Cl)c1,O,0,0,8.29,['8.29'],['combined_training_datasets_unique.sdf']
3438,Cc1cc(Cl)cc(C)c1NC1=[NH+]CCN1,O,0,0,10.25,['10.25'],['combined_training_datasets_unique.sdf']
3439,Cc1cc(Cl)cc(Cl)c1NC1=[NH+]CCN1,O,0,0,9.03,['9.03'],['combined_training_datasets_unique.sdf']
3440,Cc1cc(Cl)cc(Cl)c1O,O,0,0,7.85,['7.85'],['combined_training_datasets_unique.sdf']
3441,Cc1cc(Cl)ccc1C(=O)[O-],O,0,0,3.75,['3.75'],['combined_training_datasets_unique.sdf']
3442,Cc1cc(Cl)ccc1NC1=[NH+]CCN1,O,0,0,9.91,['9.91'],['combined_training_datasets_unique.sdf']
3443,Cc1cc(Cl)ccc1Nc1cc(C(F)(F)F)c(C(=O)NCC2CCOCC2)cn1,O,0,0,2.63,['2.63'],['combined_training_datasets_unique.sdf']
3444,Cc1cc(Cl)ccc1O,O,0,0,9.6,['9.6'],['combined_training_datasets_unique.sdf']
3445,Cc1cc(Cl)ccc1[C@@H]1CCc2c(C(=O)N(C)C)cc3c(nc(C)n3C)c2O1,O,0,0,5.59,['5.59'],['combined_training_datasets_unique.sdf']
3446,Cc1cc(Cl)ccc1[C@@H]1CCc2c(C(=O)N3CCC3)cc3c(nc(C)n3C)c2O1,O,0,0,5.49,['5.49'],['combined_training_datasets_unique.sdf']
3447,Cc1cc(Cl)cnc1C(=O)Nc1ccc(F)c([C@@]2(C)[NH+]=C(N)CO[C@@H]2F)c1,O,0,0,7.4,['7.4'],['combined_training_datasets_unique.sdf']
3448,Cc1cc(Cl)n(C)c2nc3ccccc3c1-2,O,0,0,7.45,['7.45'],['combined_training_datasets_unique.sdf']
3449,Cc1cc(F)ccc1-c1c(Oc2ccc(/C=C/C(=O)[O-])cc2)c2ccccc2oc1=O,O,0,0,5.3,['5.3'],['combined_training_datasets_unique.sdf']
3450,Cc1cc(I)c([O-])c(I)c1,O,0,0,6.0,['6.0'],['combined_training_datasets_unique.sdf']
3451,Cc1cc(I)ccc1C(=O)[O-],O,0,0,3.79,['3.79'],['combined_training_datasets_unique.sdf']
3452,Cc1cc(N(C)C)cc[n+]1[O-],O,0,0,4.37,['4.37'],['combined_training_datasets_unique.sdf']
3453,Cc1cc(N)c(C)c[nH+]1,O,0,0,9.68,['9.68'],['combined_training_datasets_unique.sdf']
3454,Cc1cc(N)c2ccccc2[nH+]1,O,0,0,9.44,['9.44'],['combined_training_datasets_unique.sdf']
3455,Cc1cc(N)cc(C)c1C,O,0,0,5.15,['5.15'],['combined_training_datasets_unique.sdf']
3456,Cc1cc(N)cc(N2CCc3ccccc3C2)[nH+]1,O,0,0,9.0,['9.0'],['combined_training_datasets_unique.sdf']
3457,Cc1cc(N)cc[n+]1[O-],O,0,0,4.1,['4.1'],['combined_training_datasets_unique.sdf']
3458,Cc1cc(N)cc[nH+]1,O,0,0,9.44,['9.44'],['combined_training_datasets_unique.sdf']
3459,Cc1cc(N)nc(C)n1,O,0,0,6.85,['6.85'],['combined_training_datasets_unique.sdf']
3460,Cc1cc(N)nc(N)n1,O,0,0,7.65,['7.65'],['combined_training_datasets_unique.sdf']
3461,Cc1cc(N)nc(N2CCc3ccccc3C2)c1,O,0,0,6.5,['6.5'],['combined_training_datasets_unique.sdf']
3462,Cc1cc(N)nc(Nc2ccc(Cl)cc2)n1,O,0,0,6.6,['6.6'],['combined_training_datasets_unique.sdf']
3463,Cc1cc(N)nc2c1ccc1ccccc12,O,0,0,6.02,['6.02'],['combined_training_datasets_unique.sdf']
3464,Cc1cc(N)nc2ccc3ccccc3c12,O,0,0,7.14,['7.14'],['combined_training_datasets_unique.sdf']
3465,Cc1cc(N)ncn1,O,0,0,6.25,['6.25'],['combined_training_datasets_unique.sdf']
3466,Cc1cc(N2CC[C@H]([NH+]3CCC[C@@H]3C)C2)ccc1NC(=O)c1c(C)noc1C,O,0,0,10.1,['10.1'],['combined_training_datasets_unique.sdf']
3467,Cc1cc(N2CC[C@H]([NH+]3CCC[C@@H]3C)C2)ccc1NC(=O)c1cc(C)n(C)n1,O,0,0,10.1,['10.1'],['combined_training_datasets_unique.sdf']
3468,Cc1cc(N2CC[C@H]([NH+]3CCC[C@@H]3C)C2)ccc1NC(=O)c1cc(F)ccc1C,O,0,0,10.1,['10.1'],['combined_training_datasets_unique.sdf']
3469,Cc1cc(N2CC[C@H]([NH+]3CCC[C@@H]3C)C2)ccc1NC(=O)c1ccco1,O,0,0,10.1,['10.1'],['combined_training_datasets_unique.sdf']
3470,Cc1cc(N2CC[C@H]([NH+]3CCC[C@@H]3C)C2)ccc1NC(=O)c1ccoc1,O,0,0,10.1,['10.1'],['combined_training_datasets_unique.sdf']
3471,Cc1cc(NCCO)cc(N2CCc3ccccc3C2)[nH+]1,O,0,0,9.2,['9.2'],['combined_training_datasets_unique.sdf']
3472,Cc1cc(NCc2ccccc2)nc(N)n1,O,0,0,7.98,['7.98'],['combined_training_datasets_unique.sdf']
3473,Cc1cc(NN)nc2ccccc12,O,0,0,5.575,['5.575'],['combined_training_datasets_unique.sdf']
3474,Cc1cc(O)c(C(C)C)cc1C,O,0,0,10.79,['10.79'],['combined_training_datasets_unique.sdf']
3475,Cc1cc(O)c(C(C)C)cc1Cl,O,0,0,9.98,['9.98'],['combined_training_datasets_unique.sdf']
3476,Cc1cc(O)c(C(C)N=O)cc1C,O,0,0,8.2,['8.2'],['combined_training_datasets_unique.sdf']
3477,Cc1cc(O)cc([N+](C)(C)C)c1,O,0,0,8.2,['8.2'],['combined_training_datasets_unique.sdf']
3478,Cc1cc(O)ccc1/N=N/c1ccc2c(c1)Cc1ccccc1-2,O,0,0,10.3,['10.3'],['combined_training_datasets_unique.sdf']
3479,Cc1cc(O)ccc1C(C)C,O,0,0,10.31,['10.31'],['combined_training_datasets_unique.sdf']
3480,Cc1cc(O)ccc1Cl,O,0,0,9.4,['9.4'],['combined_training_datasets_unique.sdf']
3481,Cc1cc(OC(F)(F)F)ccc1-c1c(Oc2ccc(/C=C/C(=O)[O-])cc2)c2ccccc2oc1=O,O,0,0,3.7,['3.7'],['combined_training_datasets_unique.sdf']
3482,Cc1cc(OCCCN=NC(N)=[NH2+])cc(OS(=O)(=O)c2ccccc2C#N)c1,O,0,0,8.84,['8.84'],['combined_training_datasets_unique.sdf']
3483,Cc1cc(OCCCN=NC(N)=[NH2+])cc(OS(=O)(=O)c2ccccc2Cl)c1,O,0,0,8.71,['8.71'],['combined_training_datasets_unique.sdf']
3484,Cc1cc(OCC[NH+]2CCOCC2)nn1-c1ccc2ccccc2c1,O,0,0,6.5,['6.5'],['combined_training_datasets_unique.sdf']
3485,Cc1cc(Oc2c(N)c(C)nn2-c2ccccc2)n(-c2ccccc2)n1,O,0,0,3.4,['3.4'],['combined_training_datasets_unique.sdf']
3486,Cc1cc(S(=O)(=O)N(CCO)CCO)cc(C)c1[O-],O,0,0,8.25,['8.25'],['combined_training_datasets_unique.sdf']
3487,Cc1cc(S(=O)(=O)Nc2nccs2)ccc1N,O,0,0,7.0,['7.0'],['combined_training_datasets_unique.sdf']
3488,Cc1cc(SSc2cc(C)nn2-c2ccccc2)n(-c2ccccc2)n1,O,0,0,4.8,['4.8'],['combined_training_datasets_unique.sdf']
3489,Cc1cc([C@H]2C[C@H]3[C@@H](C)SC(N)=[NH+][C@@]3(c3ccc(F)cc3F)CO2)on1,O,0,0,7.7,['7.7'],['combined_training_datasets_unique.sdf']
3490,Cc1cc([C@H]2C[C@H]3[C@@H](CF)SC(N)=[NH+][C@@]3(c3ccc(F)cc3F)CO2)on1,O,0,0,7.0,['7.0'],['combined_training_datasets_unique.sdf']
3491,Cc1cc([N-]S(=O)(=O)c2ccc(N)cc2)no1,O,0,0,5.925,['5.925'],['combined_training_datasets_unique.sdf']
3492,Cc1cc([O-])cc(=O)o1,O,0,0,5.0,['5.0'],['combined_training_datasets_unique.sdf']
3493,Cc1cc([O-])cc(C)c1C#N,O,0,0,8.21,['8.21'],['combined_training_datasets_unique.sdf']
3494,Cc1cc([O-])ccc1[N+](C)(C)C,O,0,0,8.34,['8.34'],['combined_training_datasets_unique.sdf']
3495,Cc1cc([O-])ccc1[S+](C)C,O,0,0,7.6,['7.6'],['combined_training_datasets_unique.sdf']
3496,Cc1cc2[nH+]c(C(=O)N(C)C)cc(NCc3c(C)cccc3C)c2[nH]1,O,0,0,7.3,['7.3'],['combined_training_datasets_unique.sdf']
3497,Cc1cc2c(-c3ccccn3)c[nH]c2c(C(=O)Nc2ccn(C)n2)n1,O,0,0,4.6,['4.6'],['combined_training_datasets_unique.sdf']
3498,Cc1cc2c(C)ccnc2c2ncccc12,O,0,0,5.71,['5.71'],['combined_training_datasets_unique.sdf']
3499,Cc1cc2cc[nH]c2c(C(=O)Nc2ccccn2)n1,O,0,0,3.5,['3.5'],['combined_training_datasets_unique.sdf']
3500,Cc1cc2cccc(C)c2nc1C,O,0,0,4.41,['4.41'],['combined_training_datasets_unique.sdf']
3501,Cc1cc2ccccc2c(C(=O)[O-])c1C,O,0,0,3.33,['3.33'],['combined_training_datasets_unique.sdf']
3502,Cc1cc2ccccc2nc1C,O,0,0,4.93,['4.93'],['combined_training_datasets_unique.sdf']
3503,Cc1cc2cccnc2c2ncccc12,O,0,0,5.26,['5.26'],['combined_training_datasets_unique.sdf']
3504,Cc1cc2ccn3ccnc3c2nc1C,O,0,0,4.63,['4.63'],['combined_training_datasets_unique.sdf']
3505,Cc1cc2nc([NH+]=C(N)N)nc(C)c2cc1C,O,0,0,9.3,['9.3'],['combined_training_datasets_unique.sdf']
3506,Cc1cc2nc[nH]c2cc1C,O,0,0,6.04,['6.04'],['combined_training_datasets_unique.sdf']
3507,Cc1cc2ncn(C)c2cc1C,O,0,0,6.0,['6.0'],['combined_training_datasets_unique.sdf']
3508,Cc1cc2ncn([C@H]3OC[C@@H](O)[C@@H](O)[C@@H]3O)c2cc1C,O,0,0,4.58,['4.58'],['combined_training_datasets_unique.sdf']
3509,Cc1cc2ncn([C@H]3OC[C@H](O)[C@H](O)[C@@H]3O)c2cc1C,O,0,0,4.7,['4.7'],['combined_training_datasets_unique.sdf']
3510,Cc1cc2ncn([C@H]3O[C@@H](CO)[C@H](O)[C@@H](O)[C@@H]3O)c2cc1C,O,0,0,4.63,['4.63'],['combined_training_datasets_unique.sdf']
3511,Cc1cc2nnn(O)c2cc1Cl,O,0,0,4.57,['4.57'],['combined_training_datasets_unique.sdf']
3512,Cc1cc[nH]c1C(=O)[O-],O,0,0,5.1,['5.1'],['combined_training_datasets_unique.sdf']
3513,Cc1ccc(-c2cccc(-c3nn[n-]n3)c2)cc1,O,0,0,4.1,['4.1'],['combined_training_datasets_unique.sdf']
3514,Cc1ccc(-c2cccc(C(=O)[O-])c2)cc1,O,0,0,4.0,['4.0'],['combined_training_datasets_unique.sdf']
3515,Cc1ccc(-c2nc3ccc(C)cn3c2CC(=O)N(C)C)cc1,O,0,0,6.02,['6.02'],['combined_training_datasets_unique.sdf']
3516,Cc1ccc(-c2nc3cccc(C(C)C(=O)[O-])c3o2)cc1,O,0,0,6.2,['6.2'],['combined_training_datasets_unique.sdf']
3517,Cc1ccc(/C=C/C(=O)[O-])cc1,O,0,0,4.56,['4.56'],['combined_training_datasets_unique.sdf']
3518,Cc1ccc(/C=C2\CN(C(=O)c3ccc(OCC[NH+](C)C)cc3)C/C(=C\c3ccc(C)cc3)C2=O)cc1,O,0,0,10.73,['10.73'],['combined_training_datasets_unique.sdf']
3519,Cc1ccc(/N=N/c2ccc(N(C)C)cc2)cc1C,O,0,0,2.37,['2.37'],['combined_training_datasets_unique.sdf']
3520,Cc1ccc(/N=N/c2ccc(N)cc2)cc1,O,0,0,3.04,['3.04'],['combined_training_datasets_unique.sdf']
3521,Cc1ccc(/[NH+]=C/N(C)C)cc1,O,0,0,9.21,['9.21'],['combined_training_datasets_unique.sdf']
3522,Cc1ccc(=O)c([O-])c(Br)c1,O,0,0,6.41,['6.41'],['combined_training_datasets_unique.sdf']
3523,Cc1ccc(Br)c(C(=O)[O-])c1,O,0,0,3.0,['3.0'],['combined_training_datasets_unique.sdf']
3524,Cc1ccc(Br)c([O-])c(=O)c1,O,0,0,6.3,['6.3'],['combined_training_datasets_unique.sdf']
3525,Cc1ccc(Br)cc1C(=O)[O-],O,0,0,3.58,['3.58'],['combined_training_datasets_unique.sdf']
3526,Cc1ccc(C(=N)c2ccccc2)c(C)c1,O,0,0,6.79,['6.79'],['combined_training_datasets_unique.sdf']
3527,Cc1ccc(C(=O)/C=C/C(=O)[O-])cc1,O,0,0,3.44,['3.44'],['combined_training_datasets_unique.sdf']
3528,Cc1ccc(C(=O)C(N=O)SCC[N+](C)(C)C)cc1,O,0,0,7.57,['7.57'],['combined_training_datasets_unique.sdf']
3529,Cc1ccc(C(=O)N(C)O)cc1,O,0,0,8.5,['8.5'],['combined_training_datasets_unique.sdf']
3530,Cc1ccc(C(=O)NC(N)=[NH+]CCCCc2ccccc2)cc1,O,0,0,7.09,['7.09'],['combined_training_datasets_unique.sdf']
3531,Cc1ccc(C(=O)NC(N)=[NH+]c2ccc(C(C)C)cc2)cc1,O,0,0,6.35,['6.35'],['combined_training_datasets_unique.sdf']
3532,Cc1ccc(C(=O)NC2CC2)cc1-n1cnc2ccc(N3CC[NH+](C)CC3)cc2c1=O,O,0,0,7.6,['7.6'],['combined_training_datasets_unique.sdf']
3533,Cc1ccc(C(=O)NO)cc1,O,0,0,8.9,['8.9'],['combined_training_datasets_unique.sdf']
3534,Cc1ccc(C(=O)Oc2ccccc2)c(O)c1,O,0,0,9.44,['9.44'],['combined_training_datasets_unique.sdf']
3535,Cc1ccc(C(=O)[O-])[nH]1,O,0,0,5.0,['5.0'],['combined_training_datasets_unique.sdf']
3536,Cc1ccc(C(=O)[O-])c(Br)c1,O,0,0,3.09,['3.09'],['combined_training_datasets_unique.sdf']
3537,Cc1ccc(C(=O)[O-])c(C)c1,O,0,0,4.18,['4.18'],['combined_training_datasets_unique.sdf']
3538,Cc1ccc(C(=O)[O-])c(Cl)c1,O,0,0,3.27,['3.27'],['combined_training_datasets_unique.sdf']
3539,Cc1ccc(C(=O)[O-])c(I)c1,O,0,0,3.2,['3.2'],['combined_training_datasets_unique.sdf']
3540,Cc1ccc(C(=O)[O-])c(O)c1,O,0,0,3.11,['3.11'],['combined_training_datasets_unique.sdf']
3541,Cc1ccc(C(=O)[O-])cc1,O,0,0,4.135,['4.135'],['combined_training_datasets_unique.sdf']