,Solute SMILES,Solvent SMILES,Solute CAS,Solute IUPAC,pKa (avg),pKa (all),Source
4558,Nc1c2c(ncn2Cc2ccccc2)nc[n+]1[O-],O,0,0,2.4,['2.4'],['combined_training_datasets_unique.sdf']
4559,Nc1c2ccccc2[nH+]c2c(N)cccc12,O,0,0,9.3,['9.3'],['combined_training_datasets_unique.sdf']
4560,Nc1c2ccccc2[nH+]c2ccccc12,O,0,0,9.795,['9.795'],['combined_training_datasets_unique.sdf']
4561,Nc1cc(-c2ccccc2)[nH+]c2ccccc12,O,0,0,8.2,['8.2'],['combined_training_datasets_unique.sdf']
4562,Nc1cc(-c2nc(N)n[nH]2)ccn1,O,0,0,4.245,['4.245'],['combined_training_datasets_unique.sdf']
4563,Nc1cc(/C=C/c2c[nH]c3ccccc23)[nH+]c2ccccc12,O,0,0,9.5,['9.5'],['combined_training_datasets_unique.sdf']
4564,Nc1cc(/C=C/c2ccccc2)[nH+]c(/C=C/c2ccccc2)c1,O,0,0,8.6,['8.6'],['combined_training_datasets_unique.sdf']
4565,Nc1cc(/C=C/c2ccccc2)[nH+]c2ccccc12,O,0,0,9.3,['9.3'],['combined_training_datasets_unique.sdf']
4566,Nc1cc(Br)cc(Br)c1,O,0,0,2.49,['2.49'],['combined_training_datasets_unique.sdf']
4567,Nc1cc(CO)[nH+]c(N2CCc3ccccc3C2)c1,O,0,0,8.1,['8.1'],['combined_training_datasets_unique.sdf']
4568,Nc1cc(N)c2ccccc2[nH+]1,O,0,0,9.45,['9.45'],['combined_training_datasets_unique.sdf']
4569,Nc1cc(N2CCOCC2)nc(N)n1,O,0,0,6.73,['6.73'],['combined_training_datasets_unique.sdf']
4570,Nc1cc(N2CCc3ccccc3C2)[nH+]c2c1CCC2,O,0,0,9.4,['9.4'],['combined_training_datasets_unique.sdf']
4571,Nc1cc(NCc2ccccc2)nc(N)n1,O,0,0,6.97,['6.97'],['combined_training_datasets_unique.sdf']
4572,Nc1cc(O)n(CCCC[C@H]([NH3+])C(=O)[O-])c1O,O,0,0,7.75,['7.75'],['combined_training_datasets_unique.sdf']
4573,Nc1cc(S(N)(=O)=O)ccc1S(=O)(=O)CCCO,O,0,0,9.15,['9.15'],['combined_training_datasets_unique.sdf']
4574,Nc1cc(S(N)(=O)=O)ccc1S(=O)(=O)CCO,O,0,0,9.5,['9.5'],['combined_training_datasets_unique.sdf']
4575,Nc1cc2c(cc1Br)CCCC2,O,0,0,3.05,['3.05'],['combined_training_datasets_unique.sdf']
4576,Nc1cc2ccccc2cn1,O,0,0,5.05,['5.05'],['combined_training_datasets_unique.sdf']
4577,Nc1cc2ccccc2nn1,O,0,0,3.66,['3.66'],['combined_training_datasets_unique.sdf']
4578,Nc1cc[nH+]c(-c2cc(Cl)ccn2)c1,O,0,0,7.4,['7.4'],['combined_training_datasets_unique.sdf']
4579,Nc1cc[nH+]c(-c2cccc(Cl)n2)c1,O,0,0,7.7,['7.7'],['combined_training_datasets_unique.sdf']
4580,Nc1cc[nH+]c(-c2ccccn2)c1,O,0,0,8.1,['8.1'],['combined_training_datasets_unique.sdf']
4581,Nc1cc[nH+]c(N2CCc3ccccc3C2)c1,O,0,0,8.5,['8.5'],['combined_training_datasets_unique.sdf']
4582,Nc1cc[nH+]c2cc(Cl)ccc12,O,0,0,8.22,['8.22'],['combined_training_datasets_unique.sdf']
4583,Nc1cc[nH+]cc1,O,0,0,9.145,['9.145'],['combined_training_datasets_unique.sdf']
4584,Nc1cc[nH+]cc1Br,O,0,0,7.15,['7.15'],['combined_training_datasets_unique.sdf']
4585,Nc1cc[nH+]cc1F,O,0,0,4.77,['4.77'],['combined_training_datasets_unique.sdf']
4586,Nc1cc[nH+]cc1N,O,0,0,9.06,['9.06'],['combined_training_datasets_unique.sdf']
4587,Nc1ccc(-c2ccccc2)cc1,O,0,0,4.38,['4.38'],['combined_training_datasets_unique.sdf']
4588,Nc1ccc(-c2cnc(-c3ccc(Br)cc3)o2)cc1,O,0,0,3.51,['3.51'],['combined_training_datasets_unique.sdf']
4589,Nc1ccc(-c2cnc(-c3ccc(Cl)cc3)o2)cc1,O,0,0,3.52,['3.52'],['combined_training_datasets_unique.sdf']
4590,Nc1ccc(-c2cnc(-c3ccccc3)o2)cc1,O,0,0,3.68,['3.68'],['combined_training_datasets_unique.sdf']
4591,Nc1ccc(-c2nc3ccccc3s2)cc1,O,0,0,3.0,['3.0'],['combined_training_datasets_unique.sdf']
4592,Nc1ccc(-c2ncc(-c3ccc(Br)cc3)o2)cc1,O,0,0,2.8,['2.8'],['combined_training_datasets_unique.sdf']
4593,Nc1ccc(-c2ncc(-c3ccc(Cl)cc3)o2)cc1,O,0,0,2.87,['2.87'],['combined_training_datasets_unique.sdf']
4594,Nc1ccc(-c2ncc(-c3ccccc3)o2)cc1,O,0,0,3.01,['3.01'],['combined_training_datasets_unique.sdf']
4595,Nc1ccc(/N=N/c2ccccc2)cc1,O,0,0,2.82,['2.82'],['combined_training_datasets_unique.sdf']
4596,Nc1ccc(Br)cc1,O,0,0,3.79,['3.79'],['combined_training_datasets_unique.sdf']
4597,Nc1ccc(Br)cc1Br,O,0,0,2.3,['2.3'],['combined_training_datasets_unique.sdf']
4598,Nc1ccc(C(=O)[O-])c(Cl)c1,O,0,0,3.905,['3.905'],['combined_training_datasets_unique.sdf']
4599,Nc1ccc(C(=O)[O-])c(F)c1,O,0,0,4.13,['4.13'],['combined_training_datasets_unique.sdf']
4600,Nc1ccc(C(=O)[O-])cc1Br,O,0,0,4.275,['4.275'],['combined_training_datasets_unique.sdf']
4601,Nc1ccc(C(=O)[O-])cc1C(=O)c1ccccc1,O,0,0,4.34,['4.34'],['combined_training_datasets_unique.sdf']
4602,Nc1ccc(C(=O)[O-])cc1Cl,O,0,0,4.35,['4.35'],['combined_training_datasets_unique.sdf']
4603,Nc1ccc(C(=O)[O-])cc1F,O,0,0,4.35,['4.35'],['combined_training_datasets_unique.sdf']
4604,Nc1ccc(C(=O)[O-])cc1I,O,0,0,4.34,['4.34'],['combined_training_datasets_unique.sdf']
4605,Nc1ccc(C(=O)[O-])cn1,O,0,0,6.2,['6.2'],['combined_training_datasets_unique.sdf']
4606,Nc1ccc(C(=O)c2ccccc2)cc1,O,0,0,2.24,['2.24'],['combined_training_datasets_unique.sdf']
4607,Nc1ccc(C(F)(F)F)cc1,O,0,0,2.57,['2.57'],['combined_training_datasets_unique.sdf']
4608,Nc1ccc(Cl)c2ccccc12,O,0,0,3.4,['3.4'],['combined_training_datasets_unique.sdf']
4609,Nc1ccc(Cl)cc1,O,0,0,3.975,['3.975'],['combined_training_datasets_unique.sdf']
4610,Nc1ccc(Cl)cc1N,O,0,0,4.3,['4.3'],['combined_training_datasets_unique.sdf']
4611,Nc1ccc(Cl)cn1,O,0,0,4.83,['4.83'],['combined_training_datasets_unique.sdf']
4612,Nc1ccc(F)cc1,O,0,0,4.645,['4.645'],['combined_training_datasets_unique.sdf']
4613,Nc1ccc(I)cc1,O,0,0,3.79,['3.79'],['combined_training_datasets_unique.sdf']
4614,Nc1ccc(N2CCc3ccccc3C2)nc1,O,0,0,5.8,['5.8'],['combined_training_datasets_unique.sdf']
4615,Nc1ccc(S(=O)(=O)Nc2ncco2)cc1,O,0,0,6.5,['6.5'],['combined_training_datasets_unique.sdf']
4616,Nc1ccc(S(=O)(=O)Nc2nccs2)c(Cl)c1,O,0,0,6.95,['6.95'],['combined_training_datasets_unique.sdf']
4617,Nc1ccc(S(=O)(=O)Nc2nccs2)cc1/N=N/c1ccccc1,O,0,0,5.85,['5.85'],['combined_training_datasets_unique.sdf']
4618,Nc1ccc(S(=O)(=O)Nc2nncs2)cc1,O,0,0,4.77,['4.77'],['combined_training_datasets_unique.sdf']
4619,Nc1ccc(S(=O)(=O)c2ccc(C(=O)[O-])cc2)cc1,O,0,0,3.6,['3.6'],['combined_training_datasets_unique.sdf']
4620,Nc1ccc2[nH]c(=O)[nH]c2c1,O,0,0,5.0,['5.0'],['combined_training_datasets_unique.sdf']
4621,Nc1ccc2[nH]ncc2c1,O,0,0,5.15,['5.15'],['combined_training_datasets_unique.sdf']
4622,Nc1ccc2c(Cl)c3ccccc3nc2c1,O,0,0,6.74,['6.74'],['combined_training_datasets_unique.sdf']
4623,Nc1ccc2c(N)c3ccccc3[nH+]c2c1,O,0,0,11.49,['11.49'],['combined_training_datasets_unique.sdf']
4624,Nc1ccc2c(c1)-c1c(ccc3ccccc13)C2,O,0,0,4.67,['4.67'],['combined_training_datasets_unique.sdf']
4625,Nc1ccc2c(c1)-c1ccccc1C2,O,0,0,4.68,['4.68'],['combined_training_datasets_unique.sdf']
4626,Nc1ccc2c(c1)CCC2,O,0,0,5.35,['5.35'],['combined_training_datasets_unique.sdf']
4627,Nc1ccc2c(c1)CCCC2,O,0,0,5.2,['5.2'],['combined_training_datasets_unique.sdf']
4628,Nc1ccc2c(c1)Cc1c(F)cccc1-2,O,0,0,3.54,['3.54'],['combined_training_datasets_unique.sdf']
4629,Nc1ccc2c(c1Br)CCCC2,O,0,0,3.05,['3.05'],['combined_training_datasets_unique.sdf']
4630,Nc1ccc2cc3c(ccc4ccccc43)nc2c1,O,0,0,7.42,['7.42'],['combined_training_datasets_unique.sdf']
4631,Nc1ccc2cc3cc(Cl)ccc3nc2c1,O,0,0,6.95,['6.95'],['combined_training_datasets_unique.sdf']
4632,Nc1ccc2cc3ccc(Cl)cc3nc2c1,O,0,0,7.26,['7.26'],['combined_training_datasets_unique.sdf']
4633,Nc1ccc2cc3ccc(N)cc3nc2c1,O,0,0,9.65,['9.65'],['combined_training_datasets_unique.sdf']
4634,Nc1ccc2cc3ccc4ccccc4c3nc2c1,O,0,0,6.72,['6.72'],['combined_training_datasets_unique.sdf']
4635,Nc1ccc2cc3ccccc3nc2c1,O,0,0,8.04,['8.04'],['combined_training_datasets_unique.sdf']
4636,Nc1ccc2cccnc2c1,O,0,0,6.65,['6.65'],['combined_training_datasets_unique.sdf']
4637,Nc1ccc2ccnnc2c1,O,0,0,4.85,['4.85'],['combined_training_datasets_unique.sdf']
4638,Nc1ccc2cn[nH]c2c1,O,0,0,4.355,['4.355'],['combined_training_datasets_unique.sdf']
4639,Nc1ccc2cnc3ccccc3c2c1,O,0,0,6.88,['6.88'],['combined_training_datasets_unique.sdf']
4640,Nc1ccc2cnccc2c1,O,0,0,7.17,['7.17'],['combined_training_datasets_unique.sdf']
4641,Nc1ccc2cncnc2c1,O,0,0,4.6,['4.6'],['combined_training_datasets_unique.sdf']
4642,Nc1ccc2nc3ccccc3nc2c1,O,0,0,4.52,['4.52'],['combined_training_datasets_unique.sdf']
4643,Nc1ccc2nccnc2c1,O,0,0,2.95,['2.95'],['combined_training_datasets_unique.sdf']
4644,Nc1ccc2ncncc2c1,O,0,0,3.29,['3.29'],['combined_training_datasets_unique.sdf']
4645,Nc1ccc2nnc3ccccc3c2c1,O,0,0,6.68,['6.68'],['combined_training_datasets_unique.sdf']
4646,Nc1ccc2nnccc2c1,O,0,0,5.04,['5.04'],['combined_training_datasets_unique.sdf']
4647,Nc1cccc(-c2ccccc2)c1,O,0,0,4.28,['4.28'],['combined_training_datasets_unique.sdf']
4648,Nc1cccc(-c2ccccn2)n1,O,0,0,5.8,['5.8'],['combined_training_datasets_unique.sdf']
4649,Nc1cccc(-c2nc3ccccc3s2)c1,O,0,0,3.4,['3.4'],['combined_training_datasets_unique.sdf']
4650,Nc1cccc(Br)c1,O,0,0,3.41,['3.41'],['combined_training_datasets_unique.sdf']
4651,Nc1cccc(C(F)(F)F)c1,O,0,0,3.49,['3.49'],['combined_training_datasets_unique.sdf']
4652,Nc1cccc(Cl)c1,O,0,0,3.59,['3.59'],['combined_training_datasets_unique.sdf']
4653,Nc1cccc(Cn2c(-c3ccc(Nc4cncnc4)cc3)ccc2-c2ccccc2Cl)n1,O,0,0,6.86,['6.86'],['combined_training_datasets_unique.sdf']
4654,Nc1cccc(Cn2c(-c3ccc(Oc4ccccc4)cc3)ccc2-c2ccccc2Cl)n1,O,0,0,6.86,['6.86'],['combined_training_datasets_unique.sdf']
4655,Nc1cccc(Cn2c(-c3ccc(Oc4ccccn4)cc3)ccc2-c2ccccc2Cl)n1,O,0,0,6.86,['6.86'],['combined_training_datasets_unique.sdf']
4656,Nc1cccc(Cn2c(-c3ccc(Oc4cccnn4)cc3)ccc2-c2ccccc2Cl)n1,O,0,0,6.86,['6.86'],['combined_training_datasets_unique.sdf']
4657,Nc1cccc(Cn2c(-c3ccc(Oc4cccs4)cc3)ccc2-c2ccccc2Cl)n1,O,0,0,6.86,['6.86'],['combined_training_datasets_unique.sdf']
4658,Nc1cccc(Cn2c(-c3ccc(Oc4cnccn4)cc3)ccc2-c2ccccc2Cl)n1,O,0,0,6.86,['6.86'],['combined_training_datasets_unique.sdf']
4659,Nc1cccc(Cn2c(-c3ccc(Oc4cncnc4)cc3)ccc2-c2ccccc2Cl)n1,O,0,0,6.86,['6.86'],['combined_training_datasets_unique.sdf']
4660,Nc1cccc(Cn2c(-c3ccccc3)ccc2-c2ccc(C(=O)NC3CC3)cc2)n1,O,0,0,6.86,['6.86'],['combined_training_datasets_unique.sdf']
4661,Nc1cccc(Cn2c(-c3ccccc3)ccc2-c2ccc(C(=O)NC3CCC3)cc2)n1,O,0,0,6.86,['6.86'],['combined_training_datasets_unique.sdf']
4662,Nc1cccc(Cn2c(-c3ccccc3)ccc2-c2ccccc2)n1,O,0,0,6.86,['6.86'],['combined_training_datasets_unique.sdf']
4663,Nc1cccc(F)c1,O,0,0,3.495,['3.495'],['combined_training_datasets_unique.sdf']
4664,Nc1cccc(I)c1,O,0,0,3.59,['3.59'],['combined_training_datasets_unique.sdf']
4665,Nc1cccc(N2CCc3ccccc3C2)n1,O,0,0,6.0,['6.0'],['combined_training_datasets_unique.sdf']
4666,Nc1cccc2[nH+]c3ccccc3c(N)c12,O,0,0,11.0,['11.0'],['combined_training_datasets_unique.sdf']
4667,Nc1cccc2[nH]c(Cc3ccccc3)nc12,O,0,0,8.6,['8.6'],['combined_training_datasets_unique.sdf']
4668,Nc1cccc2[nH]ncc12,O,0,0,3.29,['3.29'],['combined_training_datasets_unique.sdf']
4669,Nc1cccc2c1CCCC2,O,0,0,4.5,['4.5'],['combined_training_datasets_unique.sdf']
4670,Nc1cccc2c1ccc1ncccc12,O,0,0,5.2,['5.2'],['combined_training_datasets_unique.sdf']
4671,Nc1cccc2cc3ccccc3nc12,O,0,0,4.4,['4.4'],['combined_training_datasets_unique.sdf']
4672,Nc1cccc2ccccc12,O,0,0,3.92,['3.92'],['combined_training_datasets_unique.sdf']
4673,Nc1cccc2cccnc12,O,0,0,4.01,['4.01'],['combined_training_datasets_unique.sdf']
4674,Nc1cccc2ccncc12,O,0,0,6.06,['6.06'],['combined_training_datasets_unique.sdf']
4675,Nc1cccc2ccnnc12,O,0,0,3.68,['3.68'],['combined_training_datasets_unique.sdf']
4676,Nc1cccc2cncnc12,O,0,0,2.81,['2.81'],['combined_training_datasets_unique.sdf']
4677,Nc1cccc2nc3ccccc3cc12,O,0,0,6.04,['6.04'],['combined_training_datasets_unique.sdf']
4678,Nc1cccc2ncccc12,O,0,0,5.46,['5.46'],['combined_training_datasets_unique.sdf']
4679,Nc1cccc2nccnc12,O,0,0,2.62,['2.62'],['combined_training_datasets_unique.sdf']
4680,Nc1cccc2ncncc12,O,0,0,3.57,['3.57'],['combined_training_datasets_unique.sdf']
4681,Nc1cccc2nnccc12,O,0,0,2.7,['2.7'],['combined_training_datasets_unique.sdf']
4682,Nc1ccccc1,O,0,0,4.6,['4.6'],['combined_training_datasets_unique.sdf']
4683,Nc1ccccc1-c1ccccc1,O,0,0,3.81,['3.81'],['combined_training_datasets_unique.sdf']
4684,Nc1ccccc1-c1nc2ccccc2s1,O,0,0,2.6,['2.6'],['combined_training_datasets_unique.sdf']
4685,Nc1ccccc1Br,O,0,0,2.4,['2.4'],['combined_training_datasets_unique.sdf']
4686,Nc1ccccc1C(=O)[O-],O,0,0,3.475,['3.475'],['combined_training_datasets_unique.sdf']
4687,Nc1ccccc1Cl,O,0,0,2.64,['2.64'],['combined_training_datasets_unique.sdf']
4688,Nc1ccccc1F,O,0,0,3.08,['3.08'],['combined_training_datasets_unique.sdf']
4689,Nc1ccccc1N,O,0,0,4.43,['4.43'],['combined_training_datasets_unique.sdf']
4690,Nc1ccccn1,O,0,0,6.8425,['6.8425'],['combined_training_datasets_unique.sdf']
4691,Nc1cccnc1,O,0,0,6.055,['6.055'],['combined_training_datasets_unique.sdf']
4692,Nc1cccnc1C(=O)[O-],O,0,0,7.18,['7.18'],['combined_training_datasets_unique.sdf']
4693,Nc1cccnc1N,O,0,0,6.84,['6.84'],['combined_training_datasets_unique.sdf']
4694,Nc1cccnc1N1CCc2ccccc2C1,O,0,0,5.0,['5.0'],['combined_training_datasets_unique.sdf']
4695,Nc1cccnn1,O,0,0,5.19,['5.19'],['combined_training_datasets_unique.sdf']
4696,Nc1ccn(C2CC(F)C(CO)O2)c(=O)n1,O,0,0,4.22,['4.22'],['combined_training_datasets_unique.sdf']
4697,Nc1ccn([C@H]2CC[C@@H](CO)O2)c(=O)n1,O,0,0,4.42,['4.42'],['combined_training_datasets_unique.sdf']
4698,Nc1ccn[nH]1,O,0,0,4.11,['4.11'],['combined_training_datasets_unique.sdf']
4699,Nc1ccnc(N)n1,O,0,0,7.26,['7.26'],['combined_training_datasets_unique.sdf']
4700,Nc1ccncn1,O,0,0,5.705,['5.705'],['combined_training_datasets_unique.sdf']
4701,Nc1ccnnc1,O,0,0,6.69,['6.69'],['combined_training_datasets_unique.sdf']
4702,Nc1cn[nH]c1,O,0,0,5.57,['5.57'],['combined_training_datasets_unique.sdf']
4703,Nc1cnc2cc3ccccc3cc2c1,O,0,0,4.78,['4.78'],['combined_training_datasets_unique.sdf']
4704,Nc1cnc2ccccc2n1,O,0,0,3.93,['3.93'],['combined_training_datasets_unique.sdf']
4705,Nc1cncc2ccccc12,O,0,0,6.28,['6.28'],['combined_training_datasets_unique.sdf']
4706,Nc1cnccn1,O,0,0,3.14,['3.14'],['combined_training_datasets_unique.sdf']
4707,Nc1cncn1[C@H]1O[C@@H](CO)[C@H](O)[C@@H]1O,O,0,0,6.05,['6.05'],['combined_training_datasets_unique.sdf']
4708,Nc1cncnc1N,O,0,0,7.68,['7.68'],['combined_training_datasets_unique.sdf']
4709,Nc1cnnc2ccccc12,O,0,0,6.84,['6.84'],['combined_training_datasets_unique.sdf']
4710,Nc1n[nH]c(-c2ccncc2)n1,O,0,0,3.56,['3.56'],['combined_training_datasets_unique.sdf']
4711,Nc1n[nH]c(N)c1/N=N/c1ccccc1,O,0,0,3.43,['3.43'],['combined_training_datasets_unique.sdf']
4712,Nc1n[nH]c(N)c1/N=N/c1ccccc1O,O,0,0,5.865,['5.865'],['combined_training_datasets_unique.sdf']
4713,Nc1n[nH]c2ccccc12,O,0,0,3.15,['3.15'],['combined_training_datasets_unique.sdf']
4714,Nc1nc(=S)cc(NCc2ccccc2)[nH]1,O,0,0,3.33,['3.33'],['combined_training_datasets_unique.sdf']
4715,Nc1nc(=S)nc(N)[nH]1,O,0,0,9.0,['9.0'],['combined_training_datasets_unique.sdf']
4716,Nc1nc(C(F)(F)F)c2[nH]cnc2n1,O,0,0,8.87,['8.87'],['combined_training_datasets_unique.sdf']
4717,Nc1nc(Cl)cc(NCc2ccccc2)n1,O,0,0,3.56,['3.56'],['combined_training_datasets_unique.sdf']
4718,Nc1nc(N)[nH]c(=O)n1,O,0,0,6.95,['6.95'],['combined_training_datasets_unique.sdf']
4719,Nc1nc(N)c2[nH]c(N)nc2n1,O,0,0,4.32,['4.32'],['combined_training_datasets_unique.sdf']
4720,Nc1nc(N)c2ccccc2n1,O,0,0,8.12,['8.12'],['combined_training_datasets_unique.sdf']
4721,Nc1nc(N)c2cnn(-c3ccccc3)c2n1,O,0,0,4.49,['4.49'],['combined_training_datasets_unique.sdf']
4722,Nc1nc(N)nc(Nc2ccccc2)n1,O,0,0,4.65,['4.65'],['combined_training_datasets_unique.sdf']
4723,Nc1nc(NCc2ccccc2)cc(Oc2ccc(Cl)cc2)n1,O,0,0,4.77,['4.77'],['combined_training_datasets_unique.sdf']
4724,Nc1nc2c(ncn2[C@@H]2C=C[C@H](CO)C2)c(=O)[nH]1,O,0,0,9.68,['9.68'],['combined_training_datasets_unique.sdf']
4725,Nc1nc2c(ncn2[C@H]2O[C@@H](CO)[C@H](O)[C@@H]2O)c(=O)[nH]1,O,0,0,9.41,['9.41'],['combined_training_datasets_unique.sdf']
4726,Nc1nc2cc3c(cc2[nH]1)CCCC3,O,0,0,7.69,['7.69'],['combined_training_datasets_unique.sdf']
4727,Nc1nc2cc3ccccc3cc2[nH]1,O,0,0,7.01,['7.01'],['combined_training_datasets_unique.sdf']
4728,Nc1nc2ccc(OC(F)(F)F)cc2s1,O,0,0,6.5,['6.5'],['combined_training_datasets_unique.sdf']
4729,Nc1nc2ccccc2[nH]1,O,0,0,7.496667,['7.496667'],['combined_training_datasets_unique.sdf']
4730,Nc1nc2ccccc2c2ccccc12,O,0,0,7.31,['7.31'],['combined_training_datasets_unique.sdf']
4731,Nc1nc2ccccc2nc1N,O,0,0,4.7,['4.7'],['combined_training_datasets_unique.sdf']
4732,Nc1nc2ccccc2s1,O,0,0,4.51,['4.51'],['combined_training_datasets_unique.sdf']
4733,Nc1ncc(-c2ccccc2)s1,O,0,0,4.9,['4.9'],['combined_training_datasets_unique.sdf']
4734,Nc1ncc(Br)s1,O,0,0,3.61,['3.61'],['combined_training_datasets_unique.sdf']
4735,Nc1ncc(Cl)s1,O,0,0,3.66,['3.66'],['combined_training_datasets_unique.sdf']
4736,Nc1ncc(Sc2ccccc2)s1,O,0,0,4.16,['4.16'],['combined_training_datasets_unique.sdf']
4737,Nc1ncc2ccccc2n1,O,0,0,4.8,['4.8'],['combined_training_datasets_unique.sdf']
4738,Nc1ncc2ncn([C@H]3O[C@@H](CO)[C@H](O)[C@@H]3O)c2n1,O,0,0,3.4,['3.4'],['combined_training_datasets_unique.sdf']
4739,Nc1ncc[nH]1,O,0,0,8.46,['8.46'],['combined_training_datasets_unique.sdf']
4740,Nc1nccc(-c2csc(N)n2)n1,O,0,0,3.3,['3.3'],['combined_training_datasets_unique.sdf']
4741,Nc1nccc(=O)[nH]1,O,0,0,9.42,['9.42'],['combined_training_datasets_unique.sdf']
4742,Nc1nccc2ccccc12,O,0,0,7.62,['7.62'],['combined_training_datasets_unique.sdf']
4743,Nc1ncccn1,O,0,0,3.55,['3.55'],['combined_training_datasets_unique.sdf']
4744,Nc1nccs1,O,0,0,5.44,['5.44'],['combined_training_datasets_unique.sdf']
4745,Nc1ncnc2c1cnn2-c1ccccc1,O,0,0,3.89,['3.89'],['combined_training_datasets_unique.sdf']
4746,Nc1ncnc2c1cnn2CCO,O,0,0,4.29,['4.29'],['combined_training_datasets_unique.sdf']
4747,Nc1ncnc2c1ncn2C1CCCCC1,O,0,0,4.19,['4.19'],['combined_training_datasets_unique.sdf']
4748,Nc1ncnc2c1ncn2[C@@H]1O[C@H](CO)[C@@H](O)[C@H]1O,O,0,0,3.6,['3.6'],['combined_training_datasets_unique.sdf']
4749,Nc1ncnc2c1ncn2[C@H]1O[C@@H](CO)[C@H](O)[C@@H]1O,O,0,0,3.53,['3.53'],['combined_training_datasets_unique.sdf']
4750,Nc1ncnc2ccccc12,O,0,0,5.79,['5.79'],['combined_training_datasets_unique.sdf']
4751,Nc1ncnc2cn[nH]c12,O,0,0,10.15,['10.15'],['combined_training_datasets_unique.sdf']
4752,Nc1ncnc2ncn([C@H]3O[C@H](CO)[C@@H](O)[C@H]3O)c12,O,0,0,3.9,['3.9'],['combined_training_datasets_unique.sdf']
4753,Nc1nn[n-]n1,O,0,0,5.98,['5.98'],['combined_training_datasets_unique.sdf']
4754,Nc1nnc(-c2cccc(Cl)c2Cl)c(N)n1,O,0,0,5.32,['5.32'],['combined_training_datasets_unique.sdf']
4755,Nc1nnc(S(N)(=O)=O)s1,O,0,0,7.69,['7.69'],['combined_training_datasets_unique.sdf']
4756,Nc1nncc2ccccc12,O,0,0,6.6,['6.6'],['combined_training_datasets_unique.sdf']
4757,Nc1nnnn1CC(=O)[O-],O,0,0,2.38,['2.38'],['combined_training_datasets_unique.sdf']
4758,Nc1noc(C2=CCC[NH2+]C2)n1,O,0,0,8.25,['8.25'],['combined_training_datasets_unique.sdf']
4759,Nc1noc(C2CN3CC[NH+]2CC3)n1,O,0,0,6.3,['6.3'],['combined_training_datasets_unique.sdf']
4760,Nc1nsc2ccccc12,O,0,0,2.45,['2.45'],['combined_training_datasets_unique.sdf']
4761,Nn1ccccc1=O,O,0,0,2.1,['2.1'],['combined_training_datasets_unique.sdf']
4762,O=C(/C=C/c1cnc[nH]1)OCCCl,O,0,0,4.8,['4.8'],['combined_training_datasets_unique.sdf']
4763,O=C(C1CCN(c2cc[nH+]cc2)CC1)N1CCN(S(=O)(=O)c2ccc(Br)cc2)CC1,O,0,0,9.2,['9.2'],['combined_training_datasets_unique.sdf']
4764,O=C(C1CCN(c2cc[nH+]cc2F)CC1)N1CCN(S(=O)(=O)c2ccc(C(F)(F)F)cc2)CC1,O,0,0,6.7,['6.7'],['combined_training_datasets_unique.sdf']
4765,O=C(C1CCN(c2ccncn2)CC1)N1CCN(S(=O)(=O)c2ccc(Br)cc2)CC1,O,0,0,6.1,['6.1'],['combined_training_datasets_unique.sdf']
4766,O=C(C=C(O)c1ccccc1)C(F)(F)F,O,0,0,6.3,['6.3'],['combined_training_datasets_unique.sdf']
4767,O=C(C=C(O)c1ccccc1)Nc1ccccc1,O,0,0,9.54,['9.54'],['combined_training_datasets_unique.sdf']
4768,O=C(C=C(O)c1cccs1)C(F)(F)F,O,0,0,6.31,['6.31'],['combined_training_datasets_unique.sdf']
4769,O=C(CC(CO[N+](=O)[O-])O[N+](=O)[O-])Oc1ccccc1C(=O)[O-],O,0,0,3.69,['3.69'],['combined_training_datasets_unique.sdf']
4770,O=C(CC1c2ccccc2-c2ccccc21)N[C@H](Cc1cc2ccc(F)cc2[nH]1)C(=O)[O-],O,0,0,3.9,['3.9'],['combined_training_datasets_unique.sdf']
4771,O=C(CCC(CO[N+](=O)[O-])O[N+](=O)[O-])Oc1ccccc1C(=O)[O-],O,0,0,3.69,['3.69'],['combined_training_datasets_unique.sdf']
4772,O=C(CCCC(CO[N+](=O)[O-])O[N+](=O)[O-])Oc1ccccc1C(=O)[O-],O,0,0,3.69,['3.69'],['combined_training_datasets_unique.sdf']
4773,O=C(CCCCC(CO[N+](=O)[O-])O[N+](=O)[O-])Oc1ccccc1C(=O)[O-],O,0,0,3.69,['3.69'],['combined_training_datasets_unique.sdf']