,Solute SMILES,Solvent SMILES,Solute CAS,Solute IUPAC,pKa (avg),pKa (all),Source
4969,O=C([O-])CCCC1CCCCC1,O,0,0,4.95,['4.95'],['combined_training_datasets_unique.sdf']
4970,O=C([O-])CCCCC1CCSS1,O,0,0,4.82,['4.82'],['combined_training_datasets_unique.sdf']
4971,O=C([O-])CCCC[P+](c1ccccc1)(c1ccccc1)c1ccccc1,O,0,0,5.19,['5.19'],['combined_training_datasets_unique.sdf']
4972,O=C([O-])CCCCc1ccccc1,O,0,0,4.88,['4.88'],['combined_training_datasets_unique.sdf']
4973,O=C([O-])CCCN1C(=O)S/C(=C\C=C\c2ccccc2)C1=O,O,0,0,3.89,['3.89'],['combined_training_datasets_unique.sdf']
4974,O=C([O-])CCCO,O,0,0,4.72,['4.72'],['combined_training_datasets_unique.sdf']
4975,O=C([O-])CCCOC(=O)CCCBr,O,0,0,4.6,['4.6'],['combined_training_datasets_unique.sdf']
4976,O=C([O-])CCCP,O,0,0,4.53,['4.53'],['combined_training_datasets_unique.sdf']
4977,O=C([O-])CCC[C@@H]1c2ccccc2C[C@H]1NC(=O)c1cc2cc(F)ccc2[nH]1,O,0,0,4.24,['4.24'],['combined_training_datasets_unique.sdf']
4978,O=C([O-])CCCc1c[nH]c2ccccc12,O,0,0,4.82,['4.82'],['combined_training_datasets_unique.sdf']
4979,O=C([O-])CCCc1ccc(N(CCCl)CCCl)cc1,O,0,0,5.8,['5.8'],['combined_training_datasets_unique.sdf']
4980,O=C([O-])CCCc1ccccc1,O,0,0,4.78,['4.78'],['combined_training_datasets_unique.sdf']
4981,O=C([O-])CCCc1cccs1,O,0,0,4.54,['4.54'],['combined_training_datasets_unique.sdf']
4982,O=C([O-])CCCl,O,0,0,4.04,['4.04'],['combined_training_datasets_unique.sdf']
4983,O=C([O-])CCP,O,0,0,4.23,['4.23'],['combined_training_datasets_unique.sdf']
4984,O=C([O-])CC[C@H]1CC[C@H](O)CC1,O,0,0,4.86,['4.86'],['combined_training_datasets_unique.sdf']
4985,O=C([O-])CCc1c[nH]c2ccccc12,O,0,0,4.87,['4.87'],['combined_training_datasets_unique.sdf']
4986,O=C([O-])CCc1ccc(Br)cc1,O,0,0,4.33,['4.33'],['combined_training_datasets_unique.sdf']
4987,O=C([O-])CCc1ccc(Cl)cc1,O,0,0,4.65,['4.65'],['combined_training_datasets_unique.sdf']
4988,O=C([O-])CCc1ccccc1,O,0,0,4.615,['4.615'],['combined_training_datasets_unique.sdf']
4989,O=C([O-])CCc1ccco1,O,0,0,4.36,['4.36'],['combined_training_datasets_unique.sdf']
4990,O=C([O-])CCc1cccs1,O,0,0,4.34,['4.34'],['combined_training_datasets_unique.sdf']
4991,O=C([O-])CCc1ccoc1,O,0,0,4.44,['4.44'],['combined_training_datasets_unique.sdf']
4992,O=C([O-])CCc1ccsc1,O,0,0,4.45,['4.45'],['combined_training_datasets_unique.sdf']
4993,O=C([O-])CCc1nc(-c2ccccc2)c(-c2ccccc2)o1,O,0,0,5.05,['5.05'],['combined_training_datasets_unique.sdf']
4994,O=C([O-])CCc1nnnn1-c1ccccc1,O,0,0,5.0,['5.0'],['combined_training_datasets_unique.sdf']
4995,O=C([O-])CCl,O,0,0,2.85,['2.85'],['combined_training_datasets_unique.sdf']
4996,O=C([O-])CF,O,0,0,2.61,['2.61'],['combined_training_datasets_unique.sdf']
4997,O=C([O-])CI,O,0,0,3.16,['3.16'],['combined_training_datasets_unique.sdf']
4998,O=C([O-])CN(Cc1ccccc1)S(=O)(=O)c1ccc(OC(F)F)cc1,O,0,0,3.4,['3.4'],['combined_training_datasets_unique.sdf']
4999,O=C([O-])CN1C(=O)c2cccc3cccc(c23)C1=O,O,0,0,4.8,['4.8'],['combined_training_datasets_unique.sdf']
5000,O=C([O-])CO,O,0,0,3.67,['3.67'],['combined_training_datasets_unique.sdf']
5001,O=C([O-])COc1cc2c(c(Cl)c1Cl)C(=O)C(C1CCCC1)C2,O,0,0,3.9,['3.9'],['combined_training_datasets_unique.sdf']
5002,O=C([O-])COc1cc2c(c(Cl)c1Cl)C(=O)C(CC1CCCC1)C2,O,0,0,3.8,['3.8'],['combined_training_datasets_unique.sdf']
5003,O=C([O-])COc1cc2c(c(Cl)c1Cl)C1=CC(=O)CCC1(C1CCCC1)C2,O,0,0,3.83,['3.83'],['combined_training_datasets_unique.sdf']
5004,O=C([O-])COc1ccccc1,O,0,0,3.175,['3.175'],['combined_training_datasets_unique.sdf']
5005,O=C([O-])CP,O,0,0,4.07,['4.07'],['combined_training_datasets_unique.sdf']
5006,O=C([O-])CS/C=C/c1ccccc1,O,0,0,3.5,['3.5'],['combined_training_datasets_unique.sdf']
5007,O=C([O-])CSC(c1ccccc1)(c1ccccc1)c1ccccc1,O,0,0,4.32,['4.32'],['combined_training_datasets_unique.sdf']
5008,O=C([O-])CSCCc1ccccc1,O,0,0,3.8,['3.8'],['combined_training_datasets_unique.sdf']
5009,O=C([O-])CSCc1ccccc1,O,0,0,3.73,['3.73'],['combined_training_datasets_unique.sdf']
5010,O=C([O-])CSc1ccccc1,O,0,0,3.52,['3.52'],['combined_training_datasets_unique.sdf']
5011,O=C([O-])C[C@@H]1c2ccccc2C[C@H]1NC(=O)c1cc2cc(F)ccc2[nH]1,O,0,0,3.95,['3.95'],['combined_training_datasets_unique.sdf']
5012,O=C([O-])C[C@]1(O)C[C@@H]2C=C[C@H]1C2,O,0,0,4.36,['4.36'],['combined_training_datasets_unique.sdf']
5013,O=C([O-])C[C@]1(O)C[C@@H]2CC[C@H]1C2,O,0,0,4.46,['4.46'],['combined_training_datasets_unique.sdf']
5014,O=C([O-])C[C@]1(O)C[C@H]2C=C[C@@H]1C2,O,0,0,4.36,['4.36'],['combined_training_datasets_unique.sdf']
5015,O=C([O-])C[C@]1(O)C[C@H]2CC[C@@H]1C2,O,0,0,4.57,['4.57'],['combined_training_datasets_unique.sdf']
5016,O=C([O-])C[NH+]1CCCCC1,O,0,0,10.35,['10.35'],['combined_training_datasets_unique.sdf']
5017,O=C([O-])Cc1c(-c2ccccc2)ccc2ccccc12,O,0,0,6.9,['6.9'],['combined_training_datasets_unique.sdf']
5018,O=C([O-])Cc1c[nH]c2ccccc12,O,0,0,4.39,['4.39'],['combined_training_datasets_unique.sdf']
5019,O=C([O-])Cc1cc(-c2ccccc2)c2ccccc2c1,O,0,0,7.0,['7.0'],['combined_training_datasets_unique.sdf']
5020,O=C([O-])Cc1cc(-c2ccccc2)cc2ccccc12,O,0,0,6.7,['6.7'],['combined_training_datasets_unique.sdf']
5021,O=C([O-])Cc1cc(F)ccc1Nc1c(Cl)cccc1Cl,O,0,0,4.02,['4.02'],['combined_training_datasets_unique.sdf']
5022,O=C([O-])Cc1cc2ccccc2cc1-c1ccccc1,O,0,0,7.1,['7.1'],['combined_training_datasets_unique.sdf']
5023,O=C([O-])Cc1ccc(-c2ccccc2)c2ccccc12,O,0,0,6.8,['6.8'],['combined_training_datasets_unique.sdf']
5024,O=C([O-])Cc1ccc(-c2ccccc2)cc1,O,0,0,4.46,['4.46'],['combined_training_datasets_unique.sdf']
5025,O=C([O-])Cc1ccc(Cl)s1,O,0,0,3.89,['3.89'],['combined_training_datasets_unique.sdf']
5026,O=C([O-])Cc1ccc2c(-c3ccccc3)cccc2c1,O,0,0,6.6,['6.6'],['combined_training_datasets_unique.sdf']
5027,O=C([O-])Cc1ccc2cc(-c3ccccc3)ccc2c1,O,0,0,6.6,['6.6'],['combined_training_datasets_unique.sdf']
5028,O=C([O-])Cc1ccc2ccc(-c3ccccc3)cc2c1,O,0,0,6.7,['6.7'],['combined_training_datasets_unique.sdf']
5029,O=C([O-])Cc1ccc2cccc(-c3ccccc3)c2c1,O,0,0,6.8,['6.8'],['combined_training_datasets_unique.sdf']
5030,O=C([O-])Cc1ccc2ccccc2c1,O,0,0,4.26,['4.26'],['combined_training_datasets_unique.sdf']
5031,O=C([O-])Cc1ccc2ccccc2c1-c1ccccc1,O,0,0,7.2,['7.2'],['combined_training_datasets_unique.sdf']
5032,O=C([O-])Cc1cccc2c(-c3ccccc3)cccc12,O,0,0,6.7,['6.7'],['combined_training_datasets_unique.sdf']
5033,O=C([O-])Cc1cccc2cc(-c3ccccc3)ccc12,O,0,0,6.9,['6.9'],['combined_training_datasets_unique.sdf']
5034,O=C([O-])Cc1cccc2ccc(-c3ccccc3)cc12,O,0,0,6.9,['6.9'],['combined_training_datasets_unique.sdf']
5035,O=C([O-])Cc1cccc2ccccc12,O,0,0,4.24,['4.24'],['combined_training_datasets_unique.sdf']
5036,O=C([O-])Cc1cccc2oc(-c3ccc(Cl)cc3)nc12,O,0,0,6.1,['6.1'],['combined_training_datasets_unique.sdf']
5037,O=C([O-])Cc1cccc2oc(-c3ccccc3)nc12,O,0,0,6.3,['6.3'],['combined_training_datasets_unique.sdf']
5038,O=C([O-])Cc1ccccc1,O,0,0,4.27,['4.27'],['combined_training_datasets_unique.sdf']
5039,O=C([O-])Cc1ccccc1Nc1c(Cl)cccc1Br,O,0,0,4.2,['4.2'],['combined_training_datasets_unique.sdf']
5040,O=C([O-])Cc1ccccc1Nc1c(Cl)cccc1Cl,O,0,0,4.256,['4.256'],['combined_training_datasets_unique.sdf']
5041,O=C([O-])Cc1ccccc1Nc1c(Cl)cccc1I,O,0,0,4.24,['4.24'],['combined_training_datasets_unique.sdf']
5042,O=C([O-])Cc1ccccc1Nc1c(F)cccc1F,O,0,0,4.09,['4.09'],['combined_training_datasets_unique.sdf']
5043,O=C([O-])Cc1ccccc1Nc1cc(Cl)cc(Cl)c1,O,0,0,4.31,['4.31'],['combined_training_datasets_unique.sdf']
5044,O=C([O-])Cc1ccccc1Nc1cc(Cl)ccc1Cl,O,0,0,4.1,['4.1'],['combined_training_datasets_unique.sdf']
5045,O=C([O-])Cc1ccccc1Nc1ccc(Cl)c(Cl)c1,O,0,0,4.3,['4.3'],['combined_training_datasets_unique.sdf']
5046,O=C([O-])Cc1ccccc1Nc1cccc(Cl)c1Cl,O,0,0,4.2,['4.2'],['combined_training_datasets_unique.sdf']
5047,O=C([O-])Cc1ccccc1Nc1ccccc1,O,0,0,4.1,['4.1'],['combined_training_datasets_unique.sdf']
5048,O=C([O-])Cc1ccco1,O,0,0,3.72,['3.72'],['combined_training_datasets_unique.sdf']
5049,O=C([O-])Cc1cccs1,O,0,0,3.85,['3.85'],['combined_training_datasets_unique.sdf']
5050,O=C([O-])Cc1ccoc1,O,0,0,4.07,['4.07'],['combined_training_datasets_unique.sdf']
5051,O=C([O-])Cc1ccsc1,O,0,0,4.07,['4.07'],['combined_training_datasets_unique.sdf']
5052,O=C([O-])Cc1nn(Cc2nc3cc(C(F)(F)F)ccc3s2)c(=O)c2ccccc12,O,0,0,3.0,['3.0'],['combined_training_datasets_unique.sdf']
5053,O=C([O-])Cc1nnnn1-c1ccccc1,O,0,0,3.1,['3.1'],['combined_training_datasets_unique.sdf']
5054,O=C([O-])Cn1c2ccccc2c2ccccc21,O,0,0,3.55,['3.55'],['combined_training_datasets_unique.sdf']
5055,O=C([O-])Cn1ccc2ccccc21,O,0,0,3.4,['3.4'],['combined_training_datasets_unique.sdf']
5056,O=C([O-])Cn1cccc1,O,0,0,3.3,['3.3'],['combined_training_datasets_unique.sdf']
5057,O=C([O-])Cn1cnnn1,O,0,0,2.27,['2.27'],['combined_training_datasets_unique.sdf']
5058,O=C([O-])Cn1ncnn1,O,0,0,2.12,['2.12'],['combined_training_datasets_unique.sdf']
5059,O=C([O-])Cn1nnnc1-c1ccccc1,O,0,0,2.11,['2.11'],['combined_training_datasets_unique.sdf']
5060,O=C([O-])[C@@H]1CCCC[C@@H]1O,O,0,0,4.8,['4.8'],['combined_training_datasets_unique.sdf']
5061,O=C([O-])[C@@H]1CCC[C@H](O)C1,O,0,0,4.6,['4.6'],['combined_training_datasets_unique.sdf']
5062,O=C([O-])[C@@H]1CCC[NH2+]1,O,0,0,10.56,['10.56'],['combined_training_datasets_unique.sdf']
5063,O=C([O-])[C@@H]1C[C@@H](O)C[NH2+]1,O,0,0,9.64,['9.64'],['combined_training_datasets_unique.sdf']
5064,O=C([O-])[C@@H]1C[C@@H]1Br,O,0,0,4.09,['4.09'],['combined_training_datasets_unique.sdf']
5065,O=C([O-])[C@@H]1C[C@@H]1Cl,O,0,0,4.12,['4.12'],['combined_training_datasets_unique.sdf']
5066,O=C([O-])[C@@H]1C[C@@H]1c1ccccc1,O,0,0,4.82,['4.82'],['combined_training_datasets_unique.sdf']
5067,O=C([O-])[C@@H]1C[C@H](Cc2cccc(F)c2)C[NH2+]1,O,0,0,10.1,['10.1'],['combined_training_datasets_unique.sdf']
5068,O=C([O-])[C@@H]1C[C@H](Oc2cccc(Cl)c2)C[NH2+]1,O,0,0,8.9,['8.9'],['combined_training_datasets_unique.sdf']
5069,O=C([O-])[C@@H]1O[C@H](Oc2ccc(-c3ccccc3)cc2)[C@@H](O)[C@H](O)[C@H]1O,O,0,0,3.1,['3.1'],['combined_training_datasets_unique.sdf']
5070,O=C([O-])[C@@H]1O[C@H](Oc2ccc(Br)cc2)[C@@H](O)[C@H](O)[C@H]1O,O,0,0,3.02,['3.02'],['combined_training_datasets_unique.sdf']
5071,O=C([O-])[C@@H]1O[C@H](Oc2ccc(I)cc2)[C@@H](O)[C@H](O)[C@H]1O,O,0,0,3.28,['3.28'],['combined_training_datasets_unique.sdf']
5072,O=C([O-])[C@@H]1O[C@H](Oc2ccc3[nH]c(=O)ccc3c2)[C@@H](O)[C@H](O)[C@H]1O,O,0,0,3.41,['3.41'],['combined_training_datasets_unique.sdf']
5073,O=C([O-])[C@@H]1O[C@H](Oc2ccc3[nH]ccc(=O)c3c2)[C@@H](O)[C@H](O)[C@H]1O,O,0,0,3.425,['3.425'],['combined_training_datasets_unique.sdf']
5074,O=C([O-])[C@@]1(Cl)[C@H]2CCC[C@H]21,O,0,0,2.82,['2.82'],['combined_training_datasets_unique.sdf']
5075,O=C([O-])[C@H](O)c1ccccc1,O,0,0,3.41,['3.41'],['combined_training_datasets_unique.sdf']
5076,O=C([O-])[C@H]1CCCC[C@@H]1O,O,0,0,4.68,['4.68'],['combined_training_datasets_unique.sdf']
5077,O=C([O-])[C@H]1CCC[C@H](O)C1,O,0,0,4.82,['4.82'],['combined_training_datasets_unique.sdf']
5078,O=C([O-])[C@H]1CC[C@@H](O)CC1,O,0,0,4.84,['4.84'],['combined_training_datasets_unique.sdf']
5079,O=C([O-])[C@H]1CC[C@H](O)CC1,O,0,0,4.68,['4.68'],['combined_training_datasets_unique.sdf']
5080,O=C([O-])[C@H]1C[C@@H]1Cl,O,0,0,4.12,['4.12'],['combined_training_datasets_unique.sdf']
5081,O=C([O-])[C@H]1C[C@@H]1c1ccc(Cl)cc1,O,0,0,4.53,['4.53'],['combined_training_datasets_unique.sdf']
5082,O=C([O-])[C@H]1C[C@@H]1c1cccc(Cl)c1,O,0,0,4.51,['4.51'],['combined_training_datasets_unique.sdf']
5083,O=C([O-])[C@H]1C[C@@H]1c1ccccc1,O,0,0,4.54,['4.54'],['combined_training_datasets_unique.sdf']
5084,O=C([O-])[C@H]1C[C@@H]2CC[C@H]1C2,O,0,0,5.02,['5.02'],['combined_training_datasets_unique.sdf']
5085,O=C([O-])[C@H]1C[C@H]2CC[C@@H]1C2,O,0,0,5.08,['5.08'],['combined_training_datasets_unique.sdf']
5086,O=C([O-])[C@H]1[C@@H]2C=C[C@H]1CC2,O,0,0,4.58,['4.58'],['combined_training_datasets_unique.sdf']
5087,O=C([O-])[C@]1(Cl)[C@H]2CCC[C@H]21,O,0,0,3.03,['3.03'],['combined_training_datasets_unique.sdf']
5088,O=C([O-])c1c2ccccc2cc2ccccc12,O,0,0,3.65,['3.65'],['combined_training_datasets_unique.sdf']
5089,O=C([O-])c1c2ccccc2nc2ccccc12,O,0,0,4.0,['4.0'],['combined_training_datasets_unique.sdf']
5090,O=C([O-])c1c[nH]c2cc(Cl)c(-c3ccc(C4(O)CCC4)cc3)cc12,O,0,0,4.7,['4.7'],['combined_training_datasets_unique.sdf']
5091,O=C([O-])c1c[nH]c2cc(Cl)c(-c3ccc(C4CCCCO4)cc3)cc12,O,0,0,4.9,['4.9'],['combined_training_datasets_unique.sdf']
5092,O=C([O-])c1c[nH]c2cc(Cl)c(-c3ccc(OCCO)cc3)cc12,O,0,0,4.8,['4.8'],['combined_training_datasets_unique.sdf']
5093,O=C([O-])c1c[nH]c2cc(F)c(-c3ccc(C4(O)CCC4)cc3)c(F)c12,O,0,0,4.9,['4.9'],['combined_training_datasets_unique.sdf']
5094,O=C([O-])c1c[nH]c2cc(F)c(-c3ccc(C4(O)CCC4)cc3)cc12,O,0,0,4.8,['4.8'],['combined_training_datasets_unique.sdf']
5095,O=C([O-])c1c[nH]c2cc(F)c(-c3ccc([C@@H]4CCCCO4)cc3)c(F)c12,O,0,0,5.0,['5.0'],['combined_training_datasets_unique.sdf']
5096,O=C([O-])c1c[nH]c2ccccc12,O,0,0,5.27,['5.27'],['combined_training_datasets_unique.sdf']
5097,O=C([O-])c1cc(-c2ccc(F)cc2F)ccc1O,O,0,0,3.15,['3.15'],['combined_training_datasets_unique.sdf']
5098,O=C([O-])c1cc(-c2ccccc2)oc(=O)c1,O,0,0,3.3,['3.3'],['combined_training_datasets_unique.sdf']
5099,O=C([O-])c1cc(Br)ccc1O,O,0,0,3.9,['3.9'],['combined_training_datasets_unique.sdf']
5100,O=C([O-])c1cc(Br)cs1,O,0,0,3.11,['3.11'],['combined_training_datasets_unique.sdf']
5101,O=C([O-])c1cc(Cl)ccc1O,O,0,0,3.9,['3.9'],['combined_training_datasets_unique.sdf']
5102,O=C([O-])c1cc(Cl)co1,O,0,0,2.69,['2.69'],['combined_training_datasets_unique.sdf']
5103,O=C([O-])c1cc(I)ccc1O,O,0,0,3.9,['3.9'],['combined_training_datasets_unique.sdf']
5104,O=C([O-])c1cc2ccccc2[nH]1,O,0,0,3.79,['3.79'],['combined_training_datasets_unique.sdf']
5105,O=C([O-])c1cc2ccccc2cc1O,O,0,0,2.71,['2.71'],['combined_training_datasets_unique.sdf']
5106,O=C([O-])c1cc2ccccc2o1,O,0,0,2.84,['2.84'],['combined_training_datasets_unique.sdf']
5107,O=C([O-])c1cc2ccccc2oc1=O,O,0,0,3.6,['3.6'],['combined_training_datasets_unique.sdf']
5108,O=C([O-])c1cc2ccccc2s1,O,0,0,3.1,['3.1'],['combined_training_datasets_unique.sdf']
5109,O=C([O-])c1cc2occc2[nH]1,O,0,0,4.045,['4.045'],['combined_training_datasets_unique.sdf']
5110,O=C([O-])c1cc2sccc2[nH]1,O,0,0,3.88,['3.88'],['combined_training_datasets_unique.sdf']
5111,O=C([O-])c1cc[n+]([O-])cc1,O,0,0,2.86,['2.86'],['combined_training_datasets_unique.sdf']
5112,O=C([O-])c1cc[nH]c1,O,0,0,4.98,['4.98'],['combined_training_datasets_unique.sdf']
5113,O=C([O-])c1ccc(-c2ccc(Cl)c(O[C@H]3O[C@H](CO)[C@@H](O)[C@H](O)[C@@H]3O)c2)cc1,O,0,0,3.41,['3.41'],['combined_training_datasets_unique.sdf']
5114,O=C([O-])c1ccc(-c2ccc(O[C@H]3O[C@H](CO)[C@@H](O)[C@H](O)[C@@H]3O)c(Cl)c2)cc1,O,0,0,3.98,['3.98'],['combined_training_datasets_unique.sdf']
5115,O=C([O-])c1ccc(-c2ccc(O[C@H]3O[C@H](CO)[C@@H](O)[C@H](O)[C@@H]3O)cc2)cc1,O,0,0,3.88,['3.88'],['combined_training_datasets_unique.sdf']
5116,O=C([O-])c1ccc(-c2ccc(O[C@H]3O[C@H](CO)[C@@H](O)[C@H](O)[C@@H]3O)cc2Cl)cc1,O,0,0,3.95,['3.95'],['combined_training_datasets_unique.sdf']
5117,O=C([O-])c1ccc(-c2cccc(O[C@H]3O[C@H](CO)[C@@H](O)[C@H](O)[C@@H]3O)c2)cc1,O,0,0,3.6,['3.6'],['combined_training_datasets_unique.sdf']
5118,O=C([O-])c1ccc(/N=C/c2ccccc2)cc1,O,0,0,4.47,['4.47'],['combined_training_datasets_unique.sdf']
5119,O=C([O-])c1ccc(=O)oc1,O,0,0,3.26,['3.26'],['combined_training_datasets_unique.sdf']
5120,O=C([O-])c1ccc(Br)cc1,O,0,0,3.93,['3.93'],['combined_training_datasets_unique.sdf']
5121,O=C([O-])c1ccc(Br)s1,O,0,0,3.3,['3.3'],['combined_training_datasets_unique.sdf']
5122,O=C([O-])c1ccc(C2CC2)cc1,O,0,0,4.42,['4.42'],['combined_training_datasets_unique.sdf']
5123,O=C([O-])c1ccc(CCl)cc1,O,0,0,4.13,['4.13'],['combined_training_datasets_unique.sdf']
5124,O=C([O-])c1ccc(CO)cc1,O,0,0,4.18,['4.18'],['combined_training_datasets_unique.sdf']
5125,O=C([O-])c1ccc(Cl)c(Cl)c1,O,0,0,3.9,['3.9'],['combined_training_datasets_unique.sdf']
5126,O=C([O-])c1ccc(Cl)cc1,O,0,0,3.9375,['3.9375'],['combined_training_datasets_unique.sdf']
5127,O=C([O-])c1ccc(Cl)cc1Cl,O,0,0,2.74,['2.74'],['combined_training_datasets_unique.sdf']
5128,O=C([O-])c1ccc(Cl)s1,O,0,0,3.41,['3.41'],['combined_training_datasets_unique.sdf']
5129,O=C([O-])c1ccc(F)cc1,O,0,0,4.15,['4.15'],['combined_training_datasets_unique.sdf']
5130,O=C([O-])c1ccc(I)cc1,O,0,0,3.93,['3.93'],['combined_training_datasets_unique.sdf']
5131,O=C([O-])c1ccc(I)o1,O,0,0,2.94,['2.94'],['combined_training_datasets_unique.sdf']
5132,O=C([O-])c1ccc(OCc2ccccc2)cc1,O,0,0,4.44,['4.44'],['combined_training_datasets_unique.sdf']
5133,O=C([O-])c1ccc(Oc2ccccc2)cc1,O,0,0,4.52,['4.52'],['combined_training_datasets_unique.sdf']
5134,O=C([O-])c1ccc2[nH]ccc2c1,O,0,0,4.1,['4.1'],['combined_training_datasets_unique.sdf']
5135,O=C([O-])c1ccc2cc3ccccc3cc2c1,O,0,0,4.18,['4.18'],['combined_training_datasets_unique.sdf']
5136,O=C([O-])c1ccc2ccccc2c1,O,0,0,4.325,['4.325'],['combined_training_datasets_unique.sdf']
5137,O=C([O-])c1ccc2ccccc2n1,O,0,0,4.97,['4.97'],['combined_training_datasets_unique.sdf']
5138,O=C([O-])c1ccc[n+]([O-])c1,O,0,0,2.95,['2.95'],['combined_training_datasets_unique.sdf']
5139,O=C([O-])c1ccc[nH]1,O,0,0,4.35,['4.35'],['combined_training_datasets_unique.sdf']
5140,O=C([O-])c1cccc(=O)cc1,O,0,0,3.2,['3.2'],['combined_training_datasets_unique.sdf']
5141,O=C([O-])c1cccc(Br)c1,O,0,0,3.863333,['3.863333'],['combined_training_datasets_unique.sdf']
5142,O=C([O-])c1cccc(C(F)(F)F)c1,O,0,0,3.79,['3.79'],['combined_training_datasets_unique.sdf']
5143,O=C([O-])c1cccc(C2CC2)c1,O,0,0,4.28,['4.28'],['combined_training_datasets_unique.sdf']
5144,O=C([O-])c1cccc(Cl)c1,O,0,0,3.866667,['3.866667'],['combined_training_datasets_unique.sdf']
5145,O=C([O-])c1cccc(F)c1,O,0,0,3.885,['3.885'],['combined_training_datasets_unique.sdf']
5146,O=C([O-])c1cccc(I)c1,O,0,0,3.876667,['3.876667'],['combined_training_datasets_unique.sdf']
5147,O=C([O-])c1cccc(Oc2ccccc2)c1,O,0,0,3.95,['3.95'],['combined_training_datasets_unique.sdf']
5148,O=C([O-])c1cccc2cc3ccccc3cc12,O,0,0,3.7,['3.7'],['combined_training_datasets_unique.sdf']
5149,O=C([O-])c1cccc2ccccc12,O,0,0,3.7,['3.7'],['combined_training_datasets_unique.sdf']
5150,O=C([O-])c1cccc[n+]1[O-],O,0,0,3.54,['3.54'],['combined_training_datasets_unique.sdf']
5151,O=C([O-])c1ccccc1,O,0,0,4.018571,['4.018571'],['combined_training_datasets_unique.sdf']
5152,O=C([O-])c1ccccc1-c1ccccc1,O,0,0,3.46,['3.46'],['combined_training_datasets_unique.sdf']
5153,O=C([O-])c1ccccc1Br,O,0,0,2.93,['2.93'],['combined_training_datasets_unique.sdf']
5154,O=C([O-])c1ccccc1C(=O)c1ccccc1,O,0,0,3.54,['3.54'],['combined_training_datasets_unique.sdf']
5155,O=C([O-])c1ccccc1CO,O,0,0,3.84,['3.84'],['combined_training_datasets_unique.sdf']
5156,O=C([O-])c1ccccc1Cl,O,0,0,3.43,['3.43'],['combined_training_datasets_unique.sdf']
5157,O=C([O-])c1ccccc1F,O,0,0,3.435,['3.435'],['combined_training_datasets_unique.sdf']
5158,O=C([O-])c1ccccc1I,O,0,0,2.93,['2.93'],['combined_training_datasets_unique.sdf']
5159,O=C([O-])c1ccccc1O,O,0,0,3.354167,['3.354167'],['combined_training_datasets_unique.sdf']
5160,O=C([O-])c1ccccc1O[C@H]1O[C@@H](CO)[C@H](O)[C@@H](O)[C@@H]1O,O,0,0,3.6,['3.6'],['combined_training_datasets_unique.sdf']
5161,O=C([O-])c1ccccc1Oc1ccccc1,O,0,0,3.53,['3.53'],['combined_training_datasets_unique.sdf']
5162,O=C([O-])c1cccccc1=O,O,0,0,3.73,['3.73'],['combined_training_datasets_unique.sdf']
5163,O=C([O-])c1ccccn1,O,0,0,5.32,['5.32'],['combined_training_datasets_unique.sdf']
5164,O=C([O-])c1cccnn1,O,0,0,3.0,['3.0'],['combined_training_datasets_unique.sdf']
5165,O=C([O-])c1ccco1,O,0,0,3.18,['3.18'],['combined_training_datasets_unique.sdf']
5166,O=C([O-])c1cccs1,O,0,0,3.46,['3.46'],['combined_training_datasets_unique.sdf']
5167,O=C([O-])c1ccn[nH]1,O,0,0,3.84,['3.84'],['combined_training_datasets_unique.sdf']
5168,O=C([O-])c1ccnc2ccccc12,O,0,0,4.76,['4.76'],['combined_training_datasets_unique.sdf']
5169,O=C([O-])c1ccnnc1,O,0,0,2.8,['2.8'],['combined_training_datasets_unique.sdf']
5170,O=C([O-])c1ccoc1,O,0,0,3.94,['3.94'],['combined_training_datasets_unique.sdf']
5171,O=C([O-])c1ccsc1,O,0,0,4.03,['4.03'],['combined_training_datasets_unique.sdf']
5172,O=C([O-])c1cnc(Br)s1,O,0,0,2.96,['2.96'],['combined_training_datasets_unique.sdf']
5173,O=C([O-])c1cnc(Cl)s1,O,0,0,3.0,['3.0'],['combined_training_datasets_unique.sdf']