,Solute SMILES,Solvent SMILES,Solute CAS,Solute IUPAC,pKa (avg),pKa (all),Source
3747,Cc1cccc(C)c1NC(=O)C[NH+](C)C,O,0,0,7.36,['7.36'],['combined_training_datasets_unique.sdf']
3748,Cc1cccc(C)c1NC(=O)C[NH+]1CCCCC1,O,0,0,7.6,['7.6'],['combined_training_datasets_unique.sdf']
3749,Cc1cccc(C)c1NC(=O)C[NH2+]CC(C)C,O,0,0,7.83,['7.83'],['combined_training_datasets_unique.sdf']
3750,Cc1cccc(C)c1NC(=O)C[NH3+],O,0,0,7.42,['7.42'],['combined_training_datasets_unique.sdf']
3751,Cc1cccc(C)c1NC(=S)c1ccccc1,O,0,0,10.79,['10.79'],['combined_training_datasets_unique.sdf']
3752,Cc1cccc(C)c1NC1=[NH+]CCN1,O,0,0,10.52,['10.52'],['combined_training_datasets_unique.sdf']
3753,Cc1cccc(C)c1Nc1ccccc1CC(=O)[O-],O,0,0,4.07,['4.07'],['combined_training_datasets_unique.sdf']
3754,Cc1cccc(C)c1O,O,0,0,10.6,['10.6'],['combined_training_datasets_unique.sdf']
3755,Cc1cccc(C)c1OCC(=O)[O-],O,0,0,3.36,['3.36'],['combined_training_datasets_unique.sdf']
3756,Cc1cccc(C)c1OCC(C)[NH3+],O,0,0,9.153333,['9.153333'],['combined_training_datasets_unique.sdf']
3757,Cc1cccc(C)c1OC[C@@H](C)[NH3+],O,0,0,9.2,['9.2'],['combined_training_datasets_unique.sdf']
3758,Cc1cccc(C)n1,O,0,0,6.85,['6.85'],['combined_training_datasets_unique.sdf']
3759,Cc1cccc(C2[NH2+]CCS2)c1,O,0,0,5.26,['5.26'],['combined_training_datasets_unique.sdf']
3760,Cc1cccc(C=O)n1,O,0,0,4.55,['4.55'],['combined_training_datasets_unique.sdf']
3761,Cc1cccc(CO)n1,O,0,0,5.2,['5.2'],['combined_training_datasets_unique.sdf']
3762,Cc1cccc(C[NH3+])c1,O,0,0,9.37,['9.37'],['combined_training_datasets_unique.sdf']
3763,Cc1cccc(Cl)c1C(=O)[O-],O,0,0,2.59,['2.59'],['combined_training_datasets_unique.sdf']
3764,Cc1cccc(Cl)c1N(CC1CC1)C1=[NH+]CCN1,O,0,0,11.3,['11.3'],['combined_training_datasets_unique.sdf']
3765,Cc1cccc(Cl)c1NC1=[NH+]CCN1,O,0,0,9.333333,['9.333333'],['combined_training_datasets_unique.sdf']
3766,Cc1cccc(Cl)c1Nc1ccccc1CC(=O)[O-],O,0,0,4.2,['4.2'],['combined_training_datasets_unique.sdf']
3767,Cc1cccc(Cl)c1O,O,0,0,8.7,['8.7'],['combined_training_datasets_unique.sdf']
3768,Cc1cccc(I)c1C(=O)[O-],O,0,0,2.7,['2.7'],['combined_training_datasets_unique.sdf']
3769,Cc1cccc(N(C)C)c1,O,0,0,5.32,['5.32'],['combined_training_datasets_unique.sdf']
3770,Cc1cccc(N)c1,O,0,0,4.7,['4.7'],['combined_training_datasets_unique.sdf']
3771,Cc1cccc(N)c1C,O,0,0,4.56,['4.56'],['combined_training_datasets_unique.sdf']
3772,Cc1cccc(N)n1,O,0,0,7.4,['7.4'],['combined_training_datasets_unique.sdf']
3773,Cc1cccc(NC(=O)c2nc(C)cc3cc[nH]c23)n1,O,0,0,4.5,['4.5'],['combined_training_datasets_unique.sdf']
3774,Cc1cccc(NC=S)c1,O,0,0,11.55,['11.55'],['combined_training_datasets_unique.sdf']
3775,Cc1cccc(NS(=O)(=O)c2ccccc2)c1,O,0,0,8.48,['8.48'],['combined_training_datasets_unique.sdf']
3776,Cc1cccc(Nc2c3ccccc3nc3ccccc23)c1,O,0,0,7.52,['7.52'],['combined_training_datasets_unique.sdf']
3777,Cc1cccc(Nc2cc(C(C)C)c(C(=O)NCC3CCC3)cn2)c1,O,0,0,6.02,['6.02'],['combined_training_datasets_unique.sdf']
3778,Cc1cccc(Nc2cc(C(C)C)c(C(=O)NCC3CCOCC3)cn2)c1,O,0,0,6.02,['6.02'],['combined_training_datasets_unique.sdf']
3779,Cc1cccc(Nc2ccccc2C(=O)[O-])c1C,O,0,0,4.2,['4.2'],['combined_training_datasets_unique.sdf']
3780,Cc1cccc(Nc2ccncc2S(=O)(=O)/N=C(\NC#N)N2CCCCCC2)c1,O,0,0,6.0,['6.0'],['combined_training_datasets_unique.sdf']
3781,Cc1cccc(O)c1,O,0,0,10.055,['10.055'],['combined_training_datasets_unique.sdf']
3782,Cc1cccc(O)c1C,O,0,0,10.51,['10.51'],['combined_training_datasets_unique.sdf']
3783,Cc1cccc(O)c1C(=O)Oc1ccccc1,O,0,0,8.63,['8.63'],['combined_training_datasets_unique.sdf']
3784,Cc1cccc(O)c1C(=O)[O-],O,0,0,3.35,['3.35'],['combined_training_datasets_unique.sdf']
3785,Cc1cccc(O)c1O,O,0,0,9.28,['9.28'],['combined_training_datasets_unique.sdf']
3786,Cc1cccc(OC(O)(CBr)c2ccccc2)c1,O,0,0,11.21,['11.21'],['combined_training_datasets_unique.sdf']
3787,Cc1cccc(OCC(=O)[O-])c1,O,0,0,3.18,['3.18'],['combined_training_datasets_unique.sdf']
3788,Cc1cccc(Oc2cc(NCc3ccccc3)nc(N)n2)c1,O,0,0,5.27,['5.27'],['combined_training_datasets_unique.sdf']
3789,Cc1cccc(S(=O)(=O)N2CCC[C@@H]2CC[NH+]2CCC(C)CC2)c1,O,0,0,10.4,['10.4'],['combined_training_datasets_unique.sdf']
3790,Cc1cccc(S(N)(=O)=O)c1,O,0,0,9.51,['9.51'],['combined_training_datasets_unique.sdf']
3791,Cc1cccc(SCC(=O)[O-])c1,O,0,0,3.52,['3.52'],['combined_training_datasets_unique.sdf']
3792,Cc1cccc([P+](c2cccc(C)c2)(c2cccc(C)c2)C2c3ccccc3-c3ccccc32)c1,O,0,0,9.55,['9.55'],['combined_training_datasets_unique.sdf']
3793,Cc1cccc2[nH]cnc12,O,0,0,5.67,['5.67'],['combined_training_datasets_unique.sdf']
3794,Cc1cccc2c1C(=O)NC2=O,O,0,0,10.49,['10.49'],['combined_training_datasets_unique.sdf']
3795,Cc1cccc2c1CCC21CCc2c(C(=O)N(C)C)cn3c(C)c(C)nc3c2O1,O,0,0,6.87,['6.87'],['combined_training_datasets_unique.sdf']
3796,Cc1cccc2c1[C@H](Oc1cc(C(=O)N(C)C)cn3c(C)c(C)nc13)[C@@H](O)C2,O,0,0,6.22,['6.22'],['combined_training_datasets_unique.sdf']
3797,Cc1cccc2cc3ccccc3nc12,O,0,0,4.5,['4.5'],['combined_training_datasets_unique.sdf']
3798,Cc1cccc2ccc(O)cc12,O,0,0,9.42,['9.42'],['combined_training_datasets_unique.sdf']
3799,Cc1cccc2cccnc12,O,0,0,4.87,['4.87'],['combined_training_datasets_unique.sdf']
3800,Cc1cccc2ncccc12,O,0,0,5.0,['5.0'],['combined_training_datasets_unique.sdf']
3801,Cc1cccc2oc(=O)cc([O-])c12,O,0,0,4.2,['4.2'],['combined_training_datasets_unique.sdf']
3802,Cc1cccc2sc(C(N)=[NH2+])cc12,O,0,0,9.1,['9.1'],['combined_training_datasets_unique.sdf']
3803,Cc1ccccc(=O)c1[O-],O,0,0,7.92,['7.92'],['combined_training_datasets_unique.sdf']
3804,Cc1ccccc1-c1nc2cn(-c3ccc(C#N)cc3)nc2c(=O)n1CC1CCC[NH+](C(C)C)C1,O,0,0,10.0,['10.0'],['combined_training_datasets_unique.sdf']
3805,Cc1ccccc1-c1nc2cn(-c3ccc(Cl)cc3)nc2c(=O)n1CC1CCC[NH+](C(C)C)C1,O,0,0,10.0,['10.0'],['combined_training_datasets_unique.sdf']
3806,Cc1ccccc1-c1nc2cn(-c3ccc(F)cc3)nc2c(=O)n1CC1CCC[NH+](C(C)C)C1,O,0,0,10.0,['10.0'],['combined_training_datasets_unique.sdf']
3807,Cc1ccccc1-c1nc2cn(-c3cccc(C#N)c3)nc2c(=O)n1CC1CCC[NH+](C(C)C)C1,O,0,0,9.9,['9.9'],['combined_training_datasets_unique.sdf']
3808,Cc1ccccc1-c1nc2cn(-c3cccc(Cl)c3)nc2c(=O)n1CC1CCC[NH+](C(C)C)C1,O,0,0,9.8,['9.8'],['combined_training_datasets_unique.sdf']
3809,Cc1ccccc1-c1nn[n-]n1,O,0,0,4.09,['4.09'],['combined_training_datasets_unique.sdf']
3810,Cc1ccccc1/C=C/C(=O)[O-],O,0,0,4.5,['4.5'],['combined_training_datasets_unique.sdf']
3811,Cc1ccccc1/C=C/c1ccc(N(C)C)cc1,O,0,0,4.59,['4.59'],['combined_training_datasets_unique.sdf']
3812,Cc1ccccc1/[NH+]=C/N(C)C,O,0,0,8.27,['8.27'],['combined_training_datasets_unique.sdf']
3813,Cc1ccccc1C(=N)c1ccccc1,O,0,0,7.21,['7.21'],['combined_training_datasets_unique.sdf']
3814,Cc1ccccc1C(=O)[O-],O,0,0,3.92,['3.92'],['combined_training_datasets_unique.sdf']
3815,Cc1ccccc1C(=O)c1ccc2n1CCC2C(=O)[O-],O,0,0,3.44,['3.44'],['combined_training_datasets_unique.sdf']
3816,Cc1ccccc1C(=S)Nc1ccccc1,O,0,0,10.87,['10.87'],['combined_training_datasets_unique.sdf']
3817,Cc1ccccc1C(O)C(C(=O)[O-])c1ccc(-c2ccccc2)cc1,O,0,0,4.19,['4.19'],['combined_training_datasets_unique.sdf']
3818,Cc1ccccc1C(OCC[NH+](C)C)c1ccccc1,O,0,0,8.4,['8.4'],['combined_training_datasets_unique.sdf']
3819,Cc1ccccc1C1CCc2c(C(=O)N(C)C)cn3c(C)c(C)nc3c2O1,O,0,0,6.74,['6.74'],['combined_training_datasets_unique.sdf']
3820,Cc1ccccc1C[NH+](C)C,O,0,0,8.71,['8.71'],['combined_training_datasets_unique.sdf']
3821,Cc1ccccc1C[NH3+],O,0,0,9.23,['9.23'],['combined_training_datasets_unique.sdf']
3822,Cc1ccccc1N,O,0,0,4.45,['4.45'],['combined_training_datasets_unique.sdf']
3823,Cc1ccccc1N(C)C,O,0,0,6.0,['6.0'],['combined_training_datasets_unique.sdf']
3824,Cc1ccccc1N1C(=O)c2cc(S(N)(=O)=O)c(Cl)cc2NC1C,O,0,0,9.72,['9.72'],['combined_training_datasets_unique.sdf']
3825,Cc1ccccc1NC(=O)C[NH+]1CCCCC1,O,0,0,7.7,['7.7'],['combined_training_datasets_unique.sdf']
3826,Cc1ccccc1NC(=O)C[NH3+],O,0,0,7.81,['7.81'],['combined_training_datasets_unique.sdf']
3827,Cc1ccccc1NC(=S)c1ccccc1,O,0,0,10.21,['10.21'],['combined_training_datasets_unique.sdf']
3828,Cc1ccccc1NC(C)(C)C,O,0,0,6.49,['6.49'],['combined_training_datasets_unique.sdf']
3829,Cc1ccccc1NC(N)=[NH+]c1ccccc1C,O,0,0,9.67,['9.67'],['combined_training_datasets_unique.sdf']
3830,Cc1ccccc1NC1=[NH+]CCN1,O,0,0,10.23,['10.23'],['combined_training_datasets_unique.sdf']
3831,Cc1ccccc1NC1CCCC1,O,0,0,5.07,['5.07'],['combined_training_datasets_unique.sdf']
3832,Cc1ccccc1NC1CCCCC1,O,0,0,5.34,['5.34'],['combined_training_datasets_unique.sdf']
3833,Cc1ccccc1Nc1c2ccccc2nc2ccccc12,O,0,0,7.76,['7.76'],['combined_training_datasets_unique.sdf']
3834,Cc1ccccc1O,O,0,0,10.26,['10.26'],['combined_training_datasets_unique.sdf']
3835,Cc1ccccc1OC(C)C(=O)[O-],O,0,0,3.37,['3.37'],['combined_training_datasets_unique.sdf']
3836,Cc1ccccc1OCC(=O)[O-],O,0,0,3.17,['3.17'],['combined_training_datasets_unique.sdf']
3837,Cc1ccccc1OCC(O)C[NH2+]CCOc1ccc(C(N)=O)cc1,O,0,0,7.9,['7.9'],['combined_training_datasets_unique.sdf']
3838,Cc1ccccc1SCC(=O)[O-],O,0,0,3.46,['3.46'],['combined_training_datasets_unique.sdf']
3839,Cc1ccccc1[C@@H]1CCc2c(C(=O)N(C)C)cc3c(nc(C4CC4)n3C)c2O1,O,0,0,5.28,['5.28'],['combined_training_datasets_unique.sdf']
3840,Cc1ccccc1[C@@H]1CCc2c(C(=O)N(C)C)cn3c(C)c(C)nc3c2O1,O,0,0,7.15,['7.15'],['combined_training_datasets_unique.sdf']
3841,Cc1ccccn1,O,0,0,5.973333,['5.973333'],['combined_training_datasets_unique.sdf']
3842,Cc1cccnc1,O,0,0,5.81,['5.81'],['combined_training_datasets_unique.sdf']
3843,Cc1cccnc1C,O,0,0,6.57,['6.57'],['combined_training_datasets_unique.sdf']
3844,Cc1cccnc1N,O,0,0,7.24,['7.24'],['combined_training_datasets_unique.sdf']
3845,Cc1cccnn1,O,0,0,3.46,['3.46'],['combined_training_datasets_unique.sdf']
3846,Cc1ccn(C)c2nc3ccccc3c1-2,O,0,0,8.35,['8.35'],['combined_training_datasets_unique.sdf']
3847,Cc1ccn2c(CC#N)c(C)nc2c1OCc1ccccc1,O,0,0,5.67,['5.67'],['combined_training_datasets_unique.sdf']
3848,Cc1ccn[nH]1,O,0,0,3.66,['3.66'],['combined_training_datasets_unique.sdf']
3849,Cc1ccnc(-c2cc(C)ccn2)c1,O,0,0,5.32,['5.32'],['combined_training_datasets_unique.sdf']
3850,Cc1ccnc(C)c1,O,0,0,6.77,['6.77'],['combined_training_datasets_unique.sdf']
3851,Cc1ccnc(N)c1,O,0,0,7.48,['7.48'],['combined_training_datasets_unique.sdf']
3852,Cc1ccnc(N)n1,O,0,0,4.2,['4.2'],['combined_training_datasets_unique.sdf']
3853,Cc1ccnc(N2CCc3ccccc3C2)c1,O,0,0,6.6,['6.6'],['combined_training_datasets_unique.sdf']
3854,Cc1ccnc([N-]S(=O)(=O)c2ccc(Cl)cc2)n1,O,0,0,5.37,['5.37'],['combined_training_datasets_unique.sdf']
3855,Cc1ccnc2c1ccc1c(C)ccnc12,O,0,0,5.94,['5.94'],['combined_training_datasets_unique.sdf']
3856,Cc1ccnc2ccccc12,O,0,0,5.51,['5.51'],['combined_training_datasets_unique.sdf']
3857,Cc1ccncc1,O,0,0,6.075,['6.075'],['combined_training_datasets_unique.sdf']
3858,Cc1ccncc1C,O,0,0,6.53,['6.53'],['combined_training_datasets_unique.sdf']
3859,Cc1ccnnc1,O,0,0,3.22,['3.22'],['combined_training_datasets_unique.sdf']
3860,Cc1ccnnc1C,O,0,0,4.1,['4.1'],['combined_training_datasets_unique.sdf']
3861,Cc1cn(C)nc1C,O,0,0,3.56,['3.56'],['combined_training_datasets_unique.sdf']
3862,Cc1cn(C2CC(N=[N+]=[N-])C(COP(=O)(NC(C)(C)C)OCCSC(=O)C(C)(C)C)O2)c(=O)[nH]c1=O,O,0,0,10.45,['10.45'],['combined_training_datasets_unique.sdf']
3863,Cc1cn(C2CC(N=[N+]=[N-])C(COP(=O)(NC(C)C)OCCSC(=O)C(C)(C)C)O2)c(=O)[nH]c1=O,O,0,0,10.63,['10.63'],['combined_training_datasets_unique.sdf']
3864,Cc1cn([C@@H]2C[C@@H](O)[C@H](CO)O2)c(=O)[nH]c1=S,O,0,0,8.8,['8.8'],['combined_training_datasets_unique.sdf']
3865,Cc1cn([C@H]2C[C@H](O)[C@@H](CO)O2)c(=O)[nH]c1=O,O,0,0,9.8,['9.8'],['combined_training_datasets_unique.sdf']
3866,Cc1cn2c3c(=O)n(C)c(=O)n(C)c3nc2n1CCC[NH+]1CCN(c2cccc(Cl)c2)CC1,O,0,0,8.12,['8.12'],['combined_training_datasets_unique.sdf']
3867,Cc1cn2c3c(=O)n(C)c(=O)n(C)c3nc2n1CCC[NH+]1CCN(c2cccc(Cl)c2Cl)CC1,O,0,0,7.61,['7.61'],['combined_training_datasets_unique.sdf']
3868,Cc1cn2c3c(=O)n(C)c(=O)n(C)c3nc2n1CCC[NH+]1CCN(c2ccccc2)CC1,O,0,0,7.55,['7.55'],['combined_training_datasets_unique.sdf']
3869,Cc1cn2c3c(=O)n(C)c(=O)n(C)c3nc2n1CCC[NH+]1CCc2ccccc2C1,O,0,0,8.66,['8.66'],['combined_training_datasets_unique.sdf']
3870,Cc1cn2cc(C(=O)N(C)C)c3c(c2[nH+]1)CC(c1ccccc1)CC3,O,0,0,6.67,['6.67'],['combined_training_datasets_unique.sdf']
3871,Cc1cn2ccc3c(c2[nH+]1)CC(c1ccccc1)CC3,O,0,0,7.63,['7.63'],['combined_training_datasets_unique.sdf']
3872,Cc1cn2nc(-c3ccccc3)cc(C)c2[nH+]1,O,0,0,5.3,['5.3'],['combined_training_datasets_unique.sdf']
3873,Cc1cn2nc(-c3ccccc3)ccc2[nH+]1,O,0,0,5.09,['5.09'],['combined_training_datasets_unique.sdf']
3874,Cc1cnc(-c2ccccc2)c(=O)[nH]1,O,0,0,9.3,['9.3'],['combined_training_datasets_unique.sdf']
3875,Cc1cnc(C(=O)NCCc2ccc(S(=O)(=O)NC(=O)NC3CCCCC3)cc2)cn1,O,0,0,5.9,['5.9'],['combined_training_datasets_unique.sdf']
3876,Cc1cnc(C(=O)[O-])s1,O,0,0,3.03,['3.03'],['combined_training_datasets_unique.sdf']
3877,Cc1cnc(C)c(C)n1,O,0,0,2.65,['2.65'],['combined_training_datasets_unique.sdf']
3878,Cc1cnc(C[NH2+]CC2(F)CCN(C(=O)c3ccc(F)c(Cl)c3)CC2)nc1,O,0,0,6.7,['6.7'],['combined_training_datasets_unique.sdf']
3879,Cc1cnc(N(C)C)s1,O,0,0,6.08,['6.08'],['combined_training_datasets_unique.sdf']
3880,Cc1cnc(N)s1,O,0,0,5.71,['5.71'],['combined_training_datasets_unique.sdf']
3881,Cc1cnc(NCC(c2ccccc2)c2ccccc2)c(=O)n1CC(=O)NCc1ccc2c(N)noc2c1,O,0,0,8.6,['8.6'],['combined_training_datasets_unique.sdf']
3882,Cc1cnc(NCC2(c3ccc(Cl)cc3)CCC2)c(=O)n1CC(=O)NCc1cnc(N)cn1,O,0,0,2.7,['2.7'],['combined_training_datasets_unique.sdf']
3883,Cc1cnc(NCC2(c3ccc(F)cc3)CC2)c(=O)n1CC(=O)NCc1ccc2c(N)noc2c1,O,0,0,8.6,['8.6'],['combined_training_datasets_unique.sdf']
3884,Cc1cnc(NCC2(c3ccccc3)CCC2)c(=O)n1CC(=O)NCc1ccc2c(N)noc2c1,O,0,0,8.6,['8.6'],['combined_training_datasets_unique.sdf']
3885,Cc1cnc(NCCc2ccc(F)cc2)c(=O)n1CC(=O)NCc1ccc2c(N)noc2c1,O,0,0,8.6,['8.6'],['combined_training_datasets_unique.sdf']
3886,Cc1cnc(NCCc2ccccc2)c(=O)n1CC(=O)NCc1ccc2c(N)noc2c1,O,0,0,8.6,['8.6'],['combined_training_datasets_unique.sdf']
3887,Cc1cnc(NCCc2ccccc2)c(=O)n1CC(=O)NCc1cnc(N)cn1,O,0,0,2.7,['2.7'],['combined_training_datasets_unique.sdf']
3888,Cc1cnc2c(c1)c(C)c(C)c1cc(C)cnc12,O,0,0,5.54,['5.54'],['combined_training_datasets_unique.sdf']
3889,Cc1cnc2c(c1)c(C)c(C)c1cccnc12,O,0,0,5.34,['5.34'],['combined_training_datasets_unique.sdf']
3890,Cc1cnc2c(c1)c(C)cc1c(C)c(C)cnc12,O,0,0,6.07,['6.07'],['combined_training_datasets_unique.sdf']
3891,Cc1cnc2c(c1)c(C)cc1c(C)ccnc12,O,0,0,5.9,['5.9'],['combined_training_datasets_unique.sdf']
3892,Cc1cnc2c(c1)cc(C)c1cc(C)cnc12,O,0,0,5.27,['5.27'],['combined_training_datasets_unique.sdf']
3893,Cc1cnc2c(cc(C)c3c(C)ccnc32)c1C,O,0,0,6.45,['6.45'],['combined_training_datasets_unique.sdf']
3894,Cc1cnc2c(cc(C)c3cccnc32)c1C,O,0,0,5.93,['5.93'],['combined_training_datasets_unique.sdf']
3895,Cc1cnc2c(ccc3c(C)c(C)cnc32)c1C,O,0,0,6.31,['6.31'],['combined_training_datasets_unique.sdf']
3896,Cc1cnc2c(ccc3c(C)ccnc32)c1,O,0,0,5.57,['5.57'],['combined_training_datasets_unique.sdf']
3897,Cc1cnc2c(ccc3c(C)ccnc32)c1C,O,0,0,5.99,['5.99'],['combined_training_datasets_unique.sdf']
3898,Cc1cnc2c(ccc3cc(C)cnc32)c1,O,0,0,5.23,['5.23'],['combined_training_datasets_unique.sdf']
3899,Cc1cnc2c(ccc3cccnc32)c1,O,0,0,5.0,['5.0'],['combined_training_datasets_unique.sdf']
3900,Cc1cnc2c(ccc3cccnc32)c1C,O,0,0,5.62,['5.62'],['combined_training_datasets_unique.sdf']
3901,Cc1cnc2ccccc2c1,O,0,0,5.15,['5.15'],['combined_training_datasets_unique.sdf']
3902,Cc1cnc2cncnc2n1,O,0,0,3.49,['3.49'],['combined_training_datasets_unique.sdf']
3903,Cc1cnc[nH]1,O,0,0,7.51,['7.51'],['combined_training_datasets_unique.sdf']
3904,Cc1cncc(C)c1,O,0,0,6.15,['6.15'],['combined_training_datasets_unique.sdf']
3905,Cc1cncc(C)n1,O,0,0,2.11,['2.11'],['combined_training_datasets_unique.sdf']
3906,Cc1cnn(C)c1C,O,0,0,3.58,['3.58'],['combined_training_datasets_unique.sdf']
3907,Cc1cnnc(C)c1,O,0,0,4.11,['4.11'],['combined_training_datasets_unique.sdf']
3908,Cc1cnncc1C,O,0,0,4.13,['4.13'],['combined_training_datasets_unique.sdf']
3909,Cc1coc(C)c1C(=O)[O-],O,0,0,4.55,['4.55'],['combined_training_datasets_unique.sdf']
3910,Cc1coc([C@H]2C[C@H]3[C@@H](C)SC(N)=[NH+][C@@]3(c3ccc(F)cc3F)CO2)n1,O,0,0,7.8,['7.8'],['combined_training_datasets_unique.sdf']
3911,Cc1coc([C@H]2C[C@H]3[C@@H](CF)SC(N)=[NH+][C@@]3(c3ccc(F)cc3F)CO2)n1,O,0,0,7.0,['7.0'],['combined_training_datasets_unique.sdf']
3912,Cc1csc(C(=O)[O-])c1,O,0,0,3.66,['3.66'],['combined_training_datasets_unique.sdf']
3913,Cc1csc(S(N)(=O)=O)n1,O,0,0,8.35,['8.35'],['combined_training_datasets_unique.sdf']
3914,Cc1csc2nccn12,O,0,0,5.36,['5.36'],['combined_training_datasets_unique.sdf']
3915,Cc1cscn1,O,0,0,3.14,['3.14'],['combined_training_datasets_unique.sdf']
3916,Cc1n[nH]c(=O)[nH]1,O,0,0,9.43,['9.43'],['combined_training_datasets_unique.sdf']
3917,Cc1n[nH]c(C)c1C,O,0,0,4.82,['4.82'],['combined_training_datasets_unique.sdf']
3918,Cc1n[nH]c(C)c1Cl,O,0,0,2.23,['2.23'],['combined_training_datasets_unique.sdf']
3919,Cc1n[nH]nc1-c1ccccc1,O,0,0,9.11,['9.11'],['combined_training_datasets_unique.sdf']
3920,Cc1nc(-c2ccc(F)cc2F)n(C)c1CC(=O)NCc1ccc(F)cc1Cl,O,0,0,6.47,['6.47'],['combined_training_datasets_unique.sdf']
3921,Cc1nc(-c2ccccc2)[nH]c1C,O,0,0,7.0,['7.0'],['combined_training_datasets_unique.sdf']
3922,Cc1nc(-c2ccccc2)oc1O,O,0,0,8.94,['8.94'],['combined_training_datasets_unique.sdf']
3923,Cc1nc(-c2ccccc2SCc2ccccc2)[nH]c1C,O,0,0,7.0,['7.0'],['combined_training_datasets_unique.sdf']
3924,Cc1nc(=S)s[nH]1,O,0,0,5.18,['5.18'],['combined_training_datasets_unique.sdf']
3925,Cc1nc(C(=O)Nc2ccc(N3CC[C@H]([NH+]4CCC[C@@H]4C)C3)cc2C)co1,O,0,0,10.1,['10.1'],['combined_training_datasets_unique.sdf']
3926,Cc1nc(C(=O)[O-])cs1,O,0,0,3.9,['3.9'],['combined_training_datasets_unique.sdf']
3927,Cc1nc(C)c(C)nc1C,O,0,0,3.36,['3.36'],['combined_training_datasets_unique.sdf']
3928,Cc1nc(C)n2c1CN(C1CCN(C(=O)CCS(=O)(=O)c3ccc4cc(Cl)ccc4c3)CC1)C2=O,O,0,0,5.4,['5.4'],['combined_training_datasets_unique.sdf']
3929,Cc1nc(C)nc(N)n1,O,0,0,3.6,['3.6'],['combined_training_datasets_unique.sdf']
3930,Cc1nc(CO)[nH]c1C,O,0,0,7.88,['7.88'],['combined_training_datasets_unique.sdf']
3931,Cc1nc(N(C)C)nc(OC(=O)N(C)C)c1C,O,0,0,4.53,['4.53'],['combined_training_datasets_unique.sdf']
3932,Cc1nc(N)c2cnn(-c3ccccc3)c2n1,O,0,0,4.52,['4.52'],['combined_training_datasets_unique.sdf']
3933,Cc1nc(N)c2cnn(C)c2n1,O,0,0,5.0,['5.0'],['combined_training_datasets_unique.sdf']
3934,Cc1nc(N)c2ncsc2n1,O,0,0,4.56,['4.56'],['combined_training_datasets_unique.sdf']
3935,Cc1nc(N)nc(N)n1,O,0,0,4.59,['4.59'],['combined_training_datasets_unique.sdf']
3936,Cc1nc([N-]S(=O)(=O)c2ccc(N)cc2)no1,O,0,0,4.4,['4.4'],['combined_training_datasets_unique.sdf']
3937,Cc1nc2c(/C=C/Cc3ccccc3)cccn2c1CC#N,O,0,0,5.7,['5.7'],['combined_training_datasets_unique.sdf']
3938,Cc1nc2c(/C=C/Cc3ccccc3)cccn2c1N,O,0,0,6.75,['6.75'],['combined_training_datasets_unique.sdf']
3939,Cc1nc2c(/C=C/c3ccccc3)cccn2c1C,O,0,0,7.2,['7.2'],['combined_training_datasets_unique.sdf']
3940,Cc1nc2c(/C=C\c3ccccc3)cccn2c1C,O,0,0,7.2,['7.2'],['combined_training_datasets_unique.sdf']
3941,Cc1nc2c(=O)[nH]c(=O)[nH]c2n1C,O,0,0,6.2,['6.2'],['combined_training_datasets_unique.sdf']
3942,Cc1nc2c(C/C=C/c3ccccc3)cccn2c1CC#N,O,0,0,6.0,['6.0'],['combined_training_datasets_unique.sdf']
3943,Cc1nc2c(CCc3ccccc3)cccn2c1C,O,0,0,7.5,['7.5'],['combined_training_datasets_unique.sdf']
3944,Cc1nc2c(CCc3ccccc3)cccn2c1CC#N,O,0,0,6.0,['6.0'],['combined_training_datasets_unique.sdf']
3945,Cc1nc2c(CCc3ccccc3)cccn2c1N,O,0,0,7.3,['7.3'],['combined_training_datasets_unique.sdf']
3946,Cc1nc2c(CCc3ccccc3)nccn2c1N,O,0,0,5.1,['5.1'],['combined_training_datasets_unique.sdf']
3947,Cc1nc2c(N)cccc2[nH]1,O,0,0,8.1,['8.1'],['combined_training_datasets_unique.sdf']
3948,Cc1nc2c(N[C@H]3c4ccccc4C[C@@H]3O)cc(C(=O)N(C)C)cn2c1C,O,0,0,6.24,['6.24'],['combined_training_datasets_unique.sdf']
3949,Cc1nc2c(N[C@H]3c4ccccc4C[C@@H]3O)cc(C(N)=O)cn2c1C,O,0,0,5.97,['5.97'],['combined_training_datasets_unique.sdf']
3950,Cc1nc2c(OCc3ccccc3)cccn2c1C,O,0,0,7.0,['7.0'],['combined_training_datasets_unique.sdf']
3951,Cc1nc2c(OCc3ccccc3)cccn2c1CC#N,O,0,0,6.093333,['6.093333'],['combined_training_datasets_unique.sdf']
3952,Cc1nc2c(OCc3ccccc3)cccn2c1CO,O,0,0,6.1,['6.1'],['combined_training_datasets_unique.sdf']
3953,Cc1nc2c(OCc3ccccc3)cccn2c1N,O,0,0,6.81,['6.81'],['combined_training_datasets_unique.sdf']