,Solute SMILES,Solvent SMILES,Solute CAS,Solute IUPAC,pKa (avg),pKa (all),Source
1204,CCCCCCC(C)(C)c1ccc([C@@H]2C[C@H](O)CC[C@H]2CCCO)c(O)c1,O,0,0,11.16,['11.16'],['combined_training_datasets_unique.sdf']
1205,CCCCCCCC(=O)NO,O,0,0,9.19,['9.19'],['combined_training_datasets_unique.sdf']
1206,CCCCCCCC(=O)N[C@H]1C(=O)N2[C@H]1SC(C)(C)[C@H]2C(=O)[O-],O,0,0,2.66,['2.66'],['combined_training_datasets_unique.sdf']
1207,CCCCCCCC(=O)[O-],O,0,0,4.9,['4.9'],['combined_training_datasets_unique.sdf']
1208,CCCCCCCC/C=C\CCCCCCCC(=O)[O-],O,0,0,4.95,['4.95'],['combined_training_datasets_unique.sdf']
1209,CCCCCCCCC(=O)OO,O,0,0,8.23,['8.23'],['combined_training_datasets_unique.sdf']
1210,CCCCCCCCC(=O)[O-],O,0,0,4.9,['4.9'],['combined_training_datasets_unique.sdf']
1211,CCCCCCCCC1CCC(=O)N1CCCCCCC(=O)[O-],O,0,0,5.6,['5.6'],['combined_training_datasets_unique.sdf']
1212,CCCCCCCCCC(=O)[O-],O,0,0,4.895,['4.895'],['combined_training_datasets_unique.sdf']
1213,CCCCCCCCCCC(=O)[O-],O,0,0,4.9,['4.9'],['combined_training_datasets_unique.sdf']
1214,CCCCCCCCCCCC(=O)NCCCC[C@H]([NH3+])C(=O)OC,O,0,0,9.1,['9.1'],['combined_training_datasets_unique.sdf']
1215,CCCCCCCCCCCC(=O)N[C@@H](CCCC[NH3+])C(=O)OC,O,0,0,10.0,['10.0'],['combined_training_datasets_unique.sdf']
1216,CCCCCCCCCCCC(=O)[O-],O,0,0,4.895,['4.895'],['combined_training_datasets_unique.sdf']
1217,CCCCCCCCCCCCC(=O)[O-],O,0,0,4.9,['4.9'],['combined_training_datasets_unique.sdf']
1218,CCCCCCCCCCCCCC(=O)N(O)c1ccccc1,O,0,0,9.05,['9.05'],['combined_training_datasets_unique.sdf']
1219,CCCCCCCCCCCCCC(=O)NCCCC[C@H]([NH3+])C(=O)OC,O,0,0,7.8,['7.8'],['combined_training_datasets_unique.sdf']
1220,CCCCCCCCCCCCCCC(=O)[O-],O,0,0,5.01,['5.01'],['combined_training_datasets_unique.sdf']
1221,CCCCCCCCCCCCCCCC(=O)OCC1CCP([O-])(=S)O1,O,0,0,6.48,['6.48'],['combined_training_datasets_unique.sdf']
1222,CCCCCCCCCCCCCCCCCC(=O)OCC1CCP([O-])(=S)O1,O,0,0,6.76,['6.76'],['combined_training_datasets_unique.sdf']
1223,CCCCCCCCCCCCCCCCCC(=O)[O-],O,0,0,5.01,['5.01'],['combined_training_datasets_unique.sdf']
1224,CCCCCCCCCCCCCCCCCCCCCC[NH3+],O,0,0,10.6,['10.6'],['combined_training_datasets_unique.sdf']
1225,CCCCCCCCCCCCCCCCCCNCC(F)(F)F,O,0,0,4.7,['4.7'],['combined_training_datasets_unique.sdf']
1226,CCCCCCCCCCCCCCCCCC[NH+](CC(C)O)CC(C)O,O,0,0,9.4,['9.4'],['combined_training_datasets_unique.sdf']
1227,CCCCCCCCCCCCCCCCCC[NH3+],O,0,0,10.6,['10.6'],['combined_training_datasets_unique.sdf']
1228,CCCCCCCCCCCCCCCCC[NH3+],O,0,0,10.6,['10.6'],['combined_training_datasets_unique.sdf']
1229,CCCCCCCCCCCCCCCCCc1c2ccccc2nc2ccccc12,O,0,0,5.5,['5.5'],['combined_training_datasets_unique.sdf']
1230,CCCCCCCCCCCCCCCCNCC(F)(F)F,O,0,0,5.2,['5.2'],['combined_training_datasets_unique.sdf']
1231,CCCCCCCCCCCCCCCC[NH+](CC(C)O)CC(C)O,O,0,0,9.19,['9.19'],['combined_training_datasets_unique.sdf']
1232,CCCCCCCCCCCCCCCC[NH3+],O,0,0,10.61,['10.61'],['combined_training_datasets_unique.sdf']
1233,CCCCCCCCCCCCCCC[NH2+]CCCCCCCCCCCCCCC,O,0,0,11.0,['11.0'],['combined_training_datasets_unique.sdf']
1234,CCCCCCCCCCCCCCC[NH3+],O,0,0,10.61,['10.61'],['combined_training_datasets_unique.sdf']
1235,CCCCCCCCCCCCCC[NH+](CC(C)O)CC(C)O,O,0,0,8.4,['8.4'],['combined_training_datasets_unique.sdf']
1236,CCCCCCCCCCCCCC[NH+](CC(C)O)CC(O)CC,O,0,0,6.1,['6.1'],['combined_training_datasets_unique.sdf']
1237,CCCCCCCCCCCCCC[NH+](CCO)CC(C)O,O,0,0,6.3,['6.3'],['combined_training_datasets_unique.sdf']
1238,CCCCCCCCCCCCCC[NH+](CCO)CC(O)CC,O,0,0,6.1,['6.1'],['combined_training_datasets_unique.sdf']
1239,CCCCCCCCCCCCCC[NH3+],O,0,0,10.62,['10.62'],['combined_training_datasets_unique.sdf']
1240,CCCCCCCCCCCCCCn1cc(C[NH2+][C@H]2[C@H](O)[C@@H](O)[C@H](O)[C@@H](O)[C@@H]2O)nn1,O,0,0,7.7,['7.7'],['combined_training_datasets_unique.sdf']
1241,CCCCCCCCCCCCC[NH2+]CCCCCCCCCCCCC,O,0,0,11.0,['11.0'],['combined_training_datasets_unique.sdf']
1242,CCCCCCCCCCCCC[NH3+],O,0,0,10.63,['10.63'],['combined_training_datasets_unique.sdf']
1243,CCCCCCCCCCCCCc1ccccn1,O,0,0,5.6,['5.6'],['combined_training_datasets_unique.sdf']
1244,CCCCCCCCCCCCCc1ccncc1,O,0,0,5.9,['5.9'],['combined_training_datasets_unique.sdf']
1245,CCCCCCCCCCCCN(Cc1nn[n-]n1)c1ccccc1,O,0,0,4.92,['4.92'],['combined_training_datasets_unique.sdf']
1246,CCCCCCCCCCCCNCC(F)(F)F,O,0,0,5.5,['5.5'],['combined_training_datasets_unique.sdf']
1247,CCCCCCCCCCCCNCC(F)F,O,0,0,7.5,['7.5'],['combined_training_datasets_unique.sdf']
1248,CCCCCCCCCCCCNc1ccccc1,O,0,0,4.12,['4.12'],['combined_training_datasets_unique.sdf']
1249,CCCCCCCCCCCC[NH+](CC(C)O)CC(C)O,O,0,0,7.8,['7.8'],['combined_training_datasets_unique.sdf']
1250,CCCCCCCCCCCC[NH+](CC(C)O)CC(O)CC,O,0,0,6.2,['6.2'],['combined_training_datasets_unique.sdf']
1251,CCCCCCCCCCCC[NH+](CCO)CC(C)O,O,0,0,6.5,['6.5'],['combined_training_datasets_unique.sdf']
1252,CCCCCCCCCCCC[NH+](CCO)CC(O)CC,O,0,0,6.4,['6.4'],['combined_training_datasets_unique.sdf']
1253,CCCCCCCCCCCC[NH+]1CCOCC1,O,0,0,7.6,['7.6'],['combined_training_datasets_unique.sdf']
1254,CCCCCCCCCCCC[NH2+]CCCCCCCCCCCC,O,0,0,11.0,['11.0'],['combined_training_datasets_unique.sdf']
1255,CCCCCCCCCCCC[NH3+],O,0,0,10.615,['10.615'],['combined_training_datasets_unique.sdf']
1256,CCCCCCCCCCCCn1cc(C[NH2+][C@H]2[C@H](O)[C@@H](O)[C@H](O)[C@@H](O)[C@@H]2O)nn1,O,0,0,7.1,['7.1'],['combined_training_datasets_unique.sdf']
1257,CCCCCCCCCCC[NH2+]Cc1ccc(C)cc1,O,0,0,9.46,['9.46'],['combined_training_datasets_unique.sdf']
1258,CCCCCCCCCCC[NH3+],O,0,0,10.63,['10.63'],['combined_training_datasets_unique.sdf']
1259,CCCCCCCCCCCn1cc(CC[NH2+][C@H]2[C@H](O)[C@@H](O)[C@H](O)[C@@H](O)[C@@H]2O)nn1,O,0,0,9.1,['9.1'],['combined_training_datasets_unique.sdf']
1260,CCCCCCCCCCN(Cc1nn[n-]n1)c1ccccc1,O,0,0,4.87,['4.87'],['combined_training_datasets_unique.sdf']
1261,CCCCCCCCCCNc1ccccc1,O,0,0,4.56,['4.56'],['combined_training_datasets_unique.sdf']
1262,CCCCCCCCCCOC(=O)c1ccc(OS(N)(=O)=O)cc1,O,0,0,8.09,['8.09'],['combined_training_datasets_unique.sdf']
1263,CCCCCCCCCC[NH+](CC(C)O)CC(C)O,O,0,0,7.6,['7.6'],['combined_training_datasets_unique.sdf']
1264,CCCCCCCCCC[NH+](CC(C)O)CC(O)CC,O,0,0,6.7,['6.7'],['combined_training_datasets_unique.sdf']
1265,CCCCCCCCCC[NH+](CC(O)CC)CC(O)CC,O,0,0,6.6,['6.6'],['combined_training_datasets_unique.sdf']
1266,CCCCCCCCCC[NH+](CCO)CC(C)O,O,0,0,7.5,['7.5'],['combined_training_datasets_unique.sdf']
1267,CCCCCCCCCC[NH+](CCO)CC(O)CC,O,0,0,7.2,['7.2'],['combined_training_datasets_unique.sdf']
1268,CCCCCCCCCC[NH2+]Cc1ccc(C)cc1,O,0,0,9.48,['9.48'],['combined_training_datasets_unique.sdf']
1269,CCCCCCCCCC[NH3+],O,0,0,10.64,['10.64'],['combined_training_datasets_unique.sdf']
1270,CCCCCCCCCCc1c(-c2ccccc2)[nH][nH]c1=O,O,0,0,11.0,['11.0'],['combined_training_datasets_unique.sdf']
1271,CCCCCCCCCCc1c(-c2ccccc2)[nH]n(-c2ccccc2)c1=O,O,0,0,6.7,['6.7'],['combined_training_datasets_unique.sdf']
1272,CCCCCCCCCCn1cc(CCC[NH2+][C@H]2[C@H](O)[C@@H](O)[C@H](O)[C@@H](O)[C@@H]2O)nn1,O,0,0,9.9,['9.9'],['combined_training_datasets_unique.sdf']
1273,CCCCCCCCCCn1cc(C[NH2+][C@H]2[C@H](O)[C@@H](O)[C@H](O)[C@@H](O)[C@@H]2O)nn1,O,0,0,7.1,['7.1'],['combined_training_datasets_unique.sdf']
1274,CCCCCCCCCOC(=O)c1ccc(OS(N)(=O)=O)cc1,O,0,0,8.39,['8.39'],['combined_training_datasets_unique.sdf']
1275,CCCCCCCCC[NH2+]Cc1ccc(C)cc1,O,0,0,9.48,['9.48'],['combined_training_datasets_unique.sdf']
1276,CCCCCCCCCc1c(-c2ccccc2)[nH][nH]c1=O,O,0,0,10.6,['10.6'],['combined_training_datasets_unique.sdf']
1277,CCCCCCCCCc1c(-c2ccccc2)[nH]n(-c2ccccc2)c1=O,O,0,0,7.2,['7.2'],['combined_training_datasets_unique.sdf']
1278,CCCCCCCCCn1cc(CC[NH2+][C@H]2[C@H](O)[C@@H](O)[C@H](O)[C@@H](O)[C@@H]2O)nn1,O,0,0,9.1,['9.1'],['combined_training_datasets_unique.sdf']
1279,CCCCCCCCCn1cc(C[NH2+][C@H]2[C@H](O)[C@@H](O)[C@H](O)[C@@H](O)[C@@H]2O)nn1,O,0,0,7.1,['7.1'],['combined_training_datasets_unique.sdf']
1280,CCCCCCCCCn1ccnc1,O,0,0,6.6,['6.6'],['combined_training_datasets_unique.sdf']
1281,CCCCCCCCN(Cc1nn[n-]n1)c1ccccc1,O,0,0,4.83,['4.83'],['combined_training_datasets_unique.sdf']
1282,CCCCCCCCNCC(F)(F)F,O,0,0,5.9,['5.9'],['combined_training_datasets_unique.sdf']
1283,CCCCCCCCOC(=O)c1ccc(OS(N)(=O)=O)cc1,O,0,0,8.09,['8.09'],['combined_training_datasets_unique.sdf']
1284,CCCCCCCCOCC[NH+](C)C,O,0,0,8.87,['8.87'],['combined_training_datasets_unique.sdf']
1285,CCCCCCCC[NH+](CC(C)O)CC(C)O,O,0,0,8.3,['8.3'],['combined_training_datasets_unique.sdf']
1286,CCCCCCCC[NH+](CC(C)O)CC(O)CC,O,0,0,8.1,['8.1'],['combined_training_datasets_unique.sdf']
1287,CCCCCCCC[NH+](CC(O)CC)CC(O)CC,O,0,0,7.5,['7.5'],['combined_training_datasets_unique.sdf']
1288,CCCCCCCC[NH+](CCO)CC(C)O,O,0,0,8.2,['8.2'],['combined_training_datasets_unique.sdf']
1289,CCCCCCCC[NH+](CCO)CC(O)CC,O,0,0,8.3,['8.3'],['combined_training_datasets_unique.sdf']
1290,CCCCCCCC[NH+]1CCCCC1,O,0,0,8.28,['8.28'],['combined_training_datasets_unique.sdf']
1291,CCCCCCCC[NH2+]Cc1ccc(C)cc1,O,0,0,9.47,['9.47'],['combined_training_datasets_unique.sdf']
1292,CCCCCCCC[NH3+],O,0,0,10.76,['10.76'],['combined_training_datasets_unique.sdf']
1293,CCCCCCCCc1c(-c2ccccc2)[nH][nH]c1=O,O,0,0,10.2,['10.2'],['combined_training_datasets_unique.sdf']
1294,CCCCCCCCc1c(-c2ccccc2)[nH]n(-c2ccccc2)c1=O,O,0,0,7.5,['7.5'],['combined_training_datasets_unique.sdf']
1295,CCCCCCCCn1cc(CCC[NH2+][C@H]2[C@H](O)[C@@H](O)[C@H](O)[C@@H](O)[C@@H]2O)nn1,O,0,0,9.4,['9.4'],['combined_training_datasets_unique.sdf']
1296,CCCCCCCCn1cc(CC[NH2+][C@H]2[C@H](O)[C@@H](O)[C@H](O)[C@@H](O)[C@@H]2O)nn1,O,0,0,9.1,['9.1'],['combined_training_datasets_unique.sdf']
1297,CCCCCCCCn1cc(C[NH2+][C@H]2[C@H](O)[C@@H](O)[C@H](O)[C@@H](O)[C@@H]2O)nn1,O,0,0,7.7,['7.7'],['combined_training_datasets_unique.sdf']
1298,CCCCCCCN(CCCCCCC)c1ccccc1,O,0,0,3.33,['3.33'],['combined_training_datasets_unique.sdf']
1299,CCCCCCCNc1c2ccc(Cl)cc2[nH+]c2ccc(OC)cc12,O,0,0,7.5,['7.5'],['combined_training_datasets_unique.sdf']
1300,CCCCCCCNc1ccccc1,O,0,0,5.09,['5.09'],['combined_training_datasets_unique.sdf']
1301,CCCCCCCOC(=O)c1ccc(OS(N)(=O)=O)cc1,O,0,0,8.27,['8.27'],['combined_training_datasets_unique.sdf']
1302,CCCCCCC[NH2+]Cc1ccc(C)cc1,O,0,0,10.02,['10.02'],['combined_training_datasets_unique.sdf']
1303,CCCCCCC[NH3+],O,0,0,10.34,['10.34'],['combined_training_datasets_unique.sdf']
1304,CCCCCCCc1c(-c2ccccc2)[nH][nH]c1=O,O,0,0,9.2,['9.2'],['combined_training_datasets_unique.sdf']
1305,CCCCCCCc1c(-c2ccccc2)[nH]n(-c2ccccc2)c1=O,O,0,0,8.0,['8.0'],['combined_training_datasets_unique.sdf']
1306,CCCCCCN(CCCCCC)c1ccccc1,O,0,0,4.89,['4.89'],['combined_training_datasets_unique.sdf']
1307,CCCCCCN(Cc1nn[n-]n1)c1ccccc1,O,0,0,4.78,['4.78'],['combined_training_datasets_unique.sdf']
1308,CCCCCCNc1ccccc1,O,0,0,5.21,['5.21'],['combined_training_datasets_unique.sdf']
1309,CCCCCCOC(=O)c1ccc(OS(N)(=O)=O)cc1,O,0,0,8.52,['8.52'],['combined_training_datasets_unique.sdf']
1310,CCCCCCOc1ccc(-c2ccc(-c3ccccc3Cl)n2Cc2cccc(N)n2)cc1,O,0,0,6.86,['6.86'],['combined_training_datasets_unique.sdf']
1311,CCCCCC[NH+](CC(C)O)CC(C)O,O,0,0,8.5,['8.5'],['combined_training_datasets_unique.sdf']
1312,CCCCCC[NH+](CC(C)O)CC(O)CC,O,0,0,8.9,['8.9'],['combined_training_datasets_unique.sdf']
1313,CCCCCC[NH+](CC(O)CC)CC(O)CC,O,0,0,8.6,['8.6'],['combined_training_datasets_unique.sdf']
1314,CCCCCC[NH+](CCO)CC(C)O,O,0,0,9.0,['9.0'],['combined_training_datasets_unique.sdf']
1315,CCCCCC[NH+](CCO)CC(O)CC,O,0,0,9.1,['9.1'],['combined_training_datasets_unique.sdf']
1316,CCCCCC[NH2+]CCCCCC,O,0,0,11.01,['11.01'],['combined_training_datasets_unique.sdf']
1317,CCCCCC[NH2+]Cc1ccc(C)cc1,O,0,0,10.17,['10.17'],['combined_training_datasets_unique.sdf']
1318,CCCCCC[NH3+],O,0,0,10.68,['10.68'],['combined_training_datasets_unique.sdf']
1319,CCCCCCc1c(-c2ccccc2)[nH][nH]c1=O,O,0,0,8.6,['8.6'],['combined_training_datasets_unique.sdf']
1320,CCCCCCc1c(-c2ccccc2)[nH]n(-c2ccccc2)c1=O,O,0,0,7.4,['7.4'],['combined_training_datasets_unique.sdf']
1321,CCCCCCn1cc(CCC[NH2+][C@H]2[C@H](O)[C@@H](O)[C@H](O)[C@@H](O)[C@@H]2O)nn1,O,0,0,10.4,['10.4'],['combined_training_datasets_unique.sdf']
1322,CCCCCCn1ccnc1,O,0,0,7.2,['7.2'],['combined_training_datasets_unique.sdf']
1323,CCCCCN(C1=[NH+]CCN1)c1c(Br)cccc1Br,O,0,0,11.0,['11.0'],['combined_training_datasets_unique.sdf']
1324,CCCCCNC(=O)NS(=O)(=O)c1cc(Cl)ccc1OC,O,0,0,5.46,['5.46'],['combined_training_datasets_unique.sdf']
1325,CCCCCNC1=[NH+]CCN1OCCCc1ccccc1,O,0,0,10.0,['10.0'],['combined_training_datasets_unique.sdf']
1326,CCCCCNC1=[NH+]CCN1OCCc1ccccc1,O,0,0,9.9,['9.9'],['combined_training_datasets_unique.sdf']
1327,CCCCCNC1=[NH+]CCN1OCc1ccccc1,O,0,0,10.1,['10.1'],['combined_training_datasets_unique.sdf']
1328,CCCCCNN,O,0,0,6.25,['6.25'],['combined_training_datasets_unique.sdf']
1329,CCCCCNc1ccccc1,O,0,0,5.2,['5.2'],['combined_training_datasets_unique.sdf']
1330,CCCCCNc1nc2ccccc2n1CCc1ccccc1,O,0,0,7.4,['7.4'],['combined_training_datasets_unique.sdf']
1331,CCCCCOC(=O)c1ccc(OS(N)(=O)=O)cc1,O,0,0,8.47,['8.47'],['combined_training_datasets_unique.sdf']
1332,CCCCCOc1ccc(-c2ccc(-c3ccccc3Cl)n2Cc2cccc(N)n2)cc1,O,0,0,6.86,['6.86'],['combined_training_datasets_unique.sdf']
1333,CCCCCOc1ccc(C(=O)[O-])cc1,O,0,0,4.49,['4.49'],['combined_training_datasets_unique.sdf']
1334,CCCCCOc1ccc(O)cc1,O,0,0,10.23,['10.23'],['combined_training_datasets_unique.sdf']
1335,CCCCCSC(=N)c1ccccc1,O,0,0,8.5,['8.5'],['combined_training_datasets_unique.sdf']
1336,CCCCCSC1=[NH+]CCN1OCc1ccccc1,O,0,0,8.5,['8.5'],['combined_training_datasets_unique.sdf']
1337,CCCCC[C@H](C)[NH3+],O,0,0,10.8,['10.8'],['combined_training_datasets_unique.sdf']
1338,CCCCC[NH+](CC(C)O)CC(C)O,O,0,0,9.0,['9.0'],['combined_training_datasets_unique.sdf']
1339,CCCCC[NH+](CC(C)O)CC(O)CC,O,0,0,9.1,['9.1'],['combined_training_datasets_unique.sdf']
1340,CCCCC[NH+](CC(O)CC)CC(O)CC,O,0,0,9.2,['9.2'],['combined_training_datasets_unique.sdf']
1341,CCCCC[NH+](CCO)CC(C)O,O,0,0,8.9,['8.9'],['combined_training_datasets_unique.sdf']
1342,CCCCC[NH+](CCO)CC(O)CC,O,0,0,9.1,['9.1'],['combined_training_datasets_unique.sdf']
1343,CCCCC[NH2+]CCCCC,O,0,0,11.18,['11.18'],['combined_training_datasets_unique.sdf']
1344,CCCCC[NH2+]Cc1ccc(C)cc1,O,0,0,10.08,['10.08'],['combined_training_datasets_unique.sdf']
1345,CCCCC[NH3+],O,0,0,10.65,['10.65'],['combined_training_datasets_unique.sdf']
1346,CCCCCc1c(-c2ccccc2)[nH][nH]c1=O,O,0,0,8.4,['8.4'],['combined_training_datasets_unique.sdf']
1347,CCCCCc1c(-c2ccccc2)[nH]n(-c2ccccc2)c1=O,O,0,0,7.3,['7.3'],['combined_training_datasets_unique.sdf']
1348,CCCCCc1cccnn1,O,0,0,3.7,['3.7'],['combined_training_datasets_unique.sdf']
1349,CCCCCn1cc(C(=O)c2cccc3ccccc23)c2ccncc21,O,0,0,5.83,['5.83'],['combined_training_datasets_unique.sdf']
1350,CCCCCn1cc(C(=O)c2cccc3ccccc23)c2cnccc21,O,0,0,6.49,['6.49'],['combined_training_datasets_unique.sdf']
1351,CCCCCn1ccnc1,O,0,0,7.12,['7.12'],['combined_training_datasets_unique.sdf']
1352,CCCCN(C)N(C)CCCC,O,0,0,7.16,['7.16'],['combined_training_datasets_unique.sdf']
1353,CCCCN(C1=[NH+]CCN1)c1c(Br)cccc1Br,O,0,0,10.97,['10.97'],['combined_training_datasets_unique.sdf']
1354,CCCCN(CCCC)c1ccccc1,O,0,0,6.41,['6.41'],['combined_training_datasets_unique.sdf']
1355,CCCCN(CCCC)c1nnc(-c2ccccc2)cc1C,O,0,0,4.88,['4.88'],['combined_training_datasets_unique.sdf']
1356,CCCCN=C(C)N[NH+](C)C,O,0,0,10.4,['10.4'],['combined_training_datasets_unique.sdf']
1357,CCCCNC(=O)NO,O,0,0,11.0,['11.0'],['combined_training_datasets_unique.sdf']
1358,CCCCNC(=O)NS(=O)(=O)c1ccc(C)cc1,O,0,0,5.275,['5.275'],['combined_training_datasets_unique.sdf']
1359,CCCCNC(=O)[C@H](C)C[C@H](O)[C@@H]([NH3+])C[C@H](Cc1ccc(OC)c(OCCCOC)c1)C(C)C,O,0,0,9.13,['9.13'],['combined_training_datasets_unique.sdf']
1360,CCCCNC(=O)c1ccc(-c2ccc(-c3ccccc3)n2Cc2cccc(N)n2)cc1,O,0,0,6.86,['6.86'],['combined_training_datasets_unique.sdf']
1361,CCCCNCCC#N,O,0,0,8.3,['8.3'],['combined_training_datasets_unique.sdf']
1362,CCCCNN,O,0,0,7.82,['7.82'],['combined_training_datasets_unique.sdf']
1363,CCCCNc1c(N(C)CCC[NH+](C)C)c(=O)c1=O,O,0,0,8.8,['8.8'],['combined_training_datasets_unique.sdf']
1364,CCCCNc1ccccc1,O,0,0,5.11,['5.11'],['combined_training_datasets_unique.sdf']
1365,CCCCNc1ncnc2c1cnn2C,O,0,0,4.22,['4.22'],['combined_training_datasets_unique.sdf']
1366,CCCCNc1nnc(-c2ccccc2)cc1C,O,0,0,6.1,['6.1'],['combined_training_datasets_unique.sdf']
1367,CCCCOC(=N)c1ccccc1,O,0,0,6.09,['6.09'],['combined_training_datasets_unique.sdf']
1368,CCCCOC(=O)[C@@H]([NH3+])CCC(=O)NCCSC(C)=O,O,0,0,8.69,['8.69'],['combined_training_datasets_unique.sdf']
1369,CCCCOC(=O)c1ccc(N)cc1,O,0,0,2.47,['2.47'],['combined_training_datasets_unique.sdf']
1370,CCCCOC(=O)c1ccc(O)cc1,O,0,0,8.34,['8.34'],['combined_training_datasets_unique.sdf']
1371,CCCCOC(=O)c1ccc(OS(N)(=O)=O)cc1,O,0,0,8.07,['8.07'],['combined_training_datasets_unique.sdf']
1372,CCCCOC(=S)[N-]C(C)=O,O,0,0,9.25,['9.25'],['combined_training_datasets_unique.sdf']
1373,CCCCOc1cc(C(=O)NCC[NH+](CC)CC)c2ccccc2n1,O,0,0,8.85,['8.85'],['combined_training_datasets_unique.sdf']
1374,CCCCOc1ccc(-c2ccc(-c3ccccc3Cl)n2Cc2cccc(N)n2)cc1,O,0,0,6.86,['6.86'],['combined_training_datasets_unique.sdf']
1375,CCCCOc1ccc(C(=O)[O-])cc1,O,0,0,4.48,['4.48'],['combined_training_datasets_unique.sdf']
1376,CCCCOc1ccc(O)cc1,O,0,0,10.23,['10.23'],['combined_training_datasets_unique.sdf']
1377,CCCCOc1ccc(OCCC[NH+]2CCOCC2)cc1,O,0,0,6.24,['6.24'],['combined_training_datasets_unique.sdf']
1378,CCCCOc1cccc(C(=O)[O-])c1,O,0,0,4.25,['4.25'],['combined_training_datasets_unique.sdf']
1379,CCCCOc1noc2c1C[NH2+]CC2,O,0,0,7.6,['7.6'],['combined_training_datasets_unique.sdf']
1380,CCCCS,O,0,0,10.78,['10.78'],['combined_training_datasets_unique.sdf']
1381,CCCCS(=O)[O-],O,0,0,2.2,['2.2'],['combined_training_datasets_unique.sdf']
1382,CCCCSC(=N)c1ccccc1,O,0,0,8.21,['8.21'],['combined_training_datasets_unique.sdf']
1383,CCCCSC1=[NH+]CCN1,O,0,0,9.0,['9.0'],['combined_training_datasets_unique.sdf']
1384,CCCCSCC(=O)[O-],O,0,0,3.81,['3.81'],['combined_training_datasets_unique.sdf']
1385,CCCCSCC[NH+](CC)CC,O,0,0,8.43,['8.43'],['combined_training_datasets_unique.sdf']
1386,CCCCSCC[NH3+],O,0,0,8.37,['8.37'],['combined_training_datasets_unique.sdf']
1387,CCCC[As](=O)([O-])CCCC,O,0,0,6.65,['6.65'],['combined_training_datasets_unique.sdf']
1388,CCCC[C@@]1(C2CCCC2)Cc2cc(OCC(=O)[O-])c(Cl)c(Cl)c2C1=O,O,0,0,3.9,['3.9'],['combined_training_datasets_unique.sdf']
1389,CCCC[C@@]1(C2CCCC2)Cc2cc(OCCCC(=O)[O-])c(Cl)c(Cl)c2C1=O,O,0,0,4.4,['4.4'],['combined_training_datasets_unique.sdf']
1390,CCCC[C@]1(C2CCCC2)Cc2cc(OCC(=O)[O-])c(Cl)c(Cl)c2C1=O,O,0,0,3.9,['3.9'],['combined_training_datasets_unique.sdf']
1391,CCCC[C@]1(C2CCCC2)Cc2cc(OCCCC(=O)[O-])c(Cl)c(Cl)c2C1=O,O,0,0,4.4,['4.4'],['combined_training_datasets_unique.sdf']
1392,CCCC[NH+](C)C,O,0,0,10.03,['10.03'],['combined_training_datasets_unique.sdf']
1393,CCCC[NH+](CC(C)O)CC(C)O,O,0,0,9.3,['9.3'],['combined_training_datasets_unique.sdf']
1394,CCCC[NH+](CC1CO1)CC1CO1,O,0,0,6.91,['6.91'],['combined_training_datasets_unique.sdf']
1395,CCCC[NH+](CCCC)CCCC,O,0,0,10.8,['10.8'],['combined_training_datasets_unique.sdf']
1396,CCCC[NH+](CCCl)CCCl,O,0,0,6.63,['6.63'],['combined_training_datasets_unique.sdf']
1397,CCCC[NH+]1CCCC1,O,0,0,10.36,['10.36'],['combined_training_datasets_unique.sdf']
1398,CCCC[NH+]1CCCC1C,O,0,0,10.65,['10.65'],['combined_training_datasets_unique.sdf']
1399,CCCC[NH+]1CCCCC1,O,0,0,10.47,['10.47'],['combined_training_datasets_unique.sdf']
1400,CCCC[NH+]1CCCCC1C,O,0,0,10.7,['10.7'],['combined_training_datasets_unique.sdf']
1401,CCCC[NH+]1CCCCC1C(=O)Nc1c(C)cccc1C,O,0,0,7.715,['7.715'],['combined_training_datasets_unique.sdf']
1402,CCCC[NH+]=C(N)[NH+]=C(N)Nc1ccc(Cl)cc1,O,0,0,10.78,['10.78'],['combined_training_datasets_unique.sdf']
1403,CCCC[NH+]=C1Nc2ccccc2C(C)N1,O,0,0,10.7,['10.7'],['combined_training_datasets_unique.sdf']
1404,CCCC[NH2+]C,O,0,0,10.8,['10.8'],['combined_training_datasets_unique.sdf']
1405,CCCC[NH2+]CC(=O)Nc1c(C)cccc1C,O,0,0,8.04,['8.04'],['combined_training_datasets_unique.sdf']
1406,CCCC[NH2+]CCCC,O,0,0,11.29,['11.29'],['combined_training_datasets_unique.sdf']
1407,CCCC[NH2+]Cc1ccc(C)cc1,O,0,0,9.98,['9.98'],['combined_training_datasets_unique.sdf']
1408,CCCC[NH2+]Cc1ccccc1,O,0,0,9.46,['9.46'],['combined_training_datasets_unique.sdf']