,Solute SMILES,Solvent SMILES,Solute CAS,Solute IUPAC,pKa (avg),pKa (all),Source
5576,OCCn1cnc2ccccc21,O,0,0,5.29,['5.29'],['combined_training_datasets_unique.sdf']
5577,OC[C@@H]1CC[NH+]2CC[C@H](O)[C@H]12,O,0,0,10.24,['10.24'],['combined_training_datasets_unique.sdf']
5578,OC[C@@H]1NC(=[NH+]Cc2ccccc2)[C@@H](O)[C@@H](O)[C@@H]1O,O,0,0,10.0,['10.0'],['combined_training_datasets_unique.sdf']
5579,OC[C@@H]1O[C@@H]2NC(=S)O[C@@H]2[C@H]1O,O,0,0,9.48,['9.48'],['combined_training_datasets_unique.sdf']
5580,OC[C@@H]1O[C@H](C[NH+]2CCOCC2)[C@@H](O)[C@H](O)[C@@H]1O,O,0,0,6.1,['6.1'],['combined_training_datasets_unique.sdf']
5581,OC[C@@H]1O[C@H](n2ccc3c2ncn2ccnc32)[C@@H](O)[C@H]1O,O,0,0,5.49,['5.49'],['combined_training_datasets_unique.sdf']
5582,OC[C@@H]1O[C@H](n2cnc3c2ncn2ccnc32)[C@@H](O)[C@H]1O,O,0,0,4.1,['4.1'],['combined_training_datasets_unique.sdf']
5583,OC[C@@H]1O[C@H](n2cnc3ccccc32)[C@@H](O)[C@H](O)[C@H]1O,O,0,0,4.01,['4.01'],['combined_training_datasets_unique.sdf']
5584,OC[C@H]1CCC[NH+]2CCCC[C@@H]12,O,0,0,10.16,['10.16'],['combined_training_datasets_unique.sdf']
5585,OC[C@H]1CC[NH+]2CCC[C@@H]12,O,0,0,10.87,['10.87'],['combined_training_datasets_unique.sdf']
5586,OC[C@H]1O[C@@H](n2cnc3c(NCCc4ccccc4)ncnc32)[C@H](O)[C@@H]1O,O,0,0,3.6,['3.6'],['combined_training_datasets_unique.sdf']
5587,OC[C@H]1O[C@@H]2NC(=S)O[C@@H]2[C@H]1O,O,0,0,9.48,['9.48'],['combined_training_datasets_unique.sdf']
5588,OC[C@H]1O[C@H](Oc2ccc(-c3ccc(-c4nn[n-]n4)cc3)cc2)[C@@H](O)[C@@H](O)[C@@H]1O,O,0,0,3.7,['3.7'],['combined_training_datasets_unique.sdf']
5589,OCc1ccc(-c2nccc3c2[nH]c2ccccc23)o1,O,0,0,5.7,['5.7'],['combined_training_datasets_unique.sdf']
5590,OCc1ccc(O)c(CO)c1,O,0,0,9.77,['9.77'],['combined_training_datasets_unique.sdf']
5591,OCc1ccc(O)cc1,O,0,0,9.82,['9.82'],['combined_training_datasets_unique.sdf']
5592,OCc1cccc(CO)c1O,O,0,0,9.66,['9.66'],['combined_training_datasets_unique.sdf']
5593,OCc1cccc(O)c1,O,0,0,9.83,['9.83'],['combined_training_datasets_unique.sdf']
5594,OCc1ccccc1O,O,0,0,9.92,['9.92'],['combined_training_datasets_unique.sdf']
5595,OCc1ccccn1,O,0,0,4.66,['4.66'],['combined_training_datasets_unique.sdf']
5596,OCc1cccnc1,O,0,0,5.0,['5.0'],['combined_training_datasets_unique.sdf']
5597,OCc1ccncc1,O,0,0,5.41,['5.41'],['combined_training_datasets_unique.sdf']
5598,OCc1cnc[nH]1,O,0,0,6.38,['6.38'],['combined_training_datasets_unique.sdf']
5599,OCc1nc2ncncc2[nH]1,O,0,0,8.79,['8.79'],['combined_training_datasets_unique.sdf']
5600,OCn1cnc2ccccc21,O,0,0,5.44,['5.44'],['combined_training_datasets_unique.sdf']
5601,O[C@@H]1[C@@H](n2cnc3ccccc32)OC[C@@H](O)[C@H]1O,O,0,0,4.15,['4.15'],['combined_training_datasets_unique.sdf']
5602,O[C@H]1CC[C@H](Nc2ncc3nc(Nc4c(F)cc(F)cc4F)n([C@H]4CCOC4)c3n2)CC1,O,0,0,5.47,['5.47'],['combined_training_datasets_unique.sdf']
5603,O[C@H]1CO[C@H](n2cnc3ccccc32)[C@@H](O)[C@@H]1O,O,0,0,3.92,['3.92'],['combined_training_datasets_unique.sdf']
5604,O[C@H]1[C@H]([NH2+]Cc2cn(CCc3ccccc3)nn2)[C@@H](O)[C@H](O)[C@@H](O)[C@@H]1O,O,0,0,7.8,['7.8'],['combined_training_datasets_unique.sdf']
5605,Oc1c(Br)cc(Br)c2nc3ccccc3nc12,O,0,0,6.74,['6.74'],['combined_training_datasets_unique.sdf']
5606,Oc1c(Br)cc(I)c2nc3cc(Cl)c(Cl)cc3nc12,O,0,0,6.95,['6.95'],['combined_training_datasets_unique.sdf']
5607,Oc1c(O[C@@H]2OC[C@@H](O)[C@H](O)[C@H]2O)ccc2ccccc12,O,0,0,8.72,['8.72'],['combined_training_datasets_unique.sdf']
5608,Oc1cc(Br)cc(Br)c1,O,0,0,8.01,['8.01'],['combined_training_datasets_unique.sdf']
5609,Oc1cc(Cl)c(Cl)c(Cl)c1,O,0,0,7.7,['7.7'],['combined_training_datasets_unique.sdf']
5610,Oc1cc(Cl)c(Cl)cc1Cl,O,0,0,7.0,['7.0'],['combined_training_datasets_unique.sdf']
5611,Oc1cc(Cl)cc(Cl)c1,O,0,0,8.07,['8.07'],['combined_training_datasets_unique.sdf']
5612,Oc1cc(O[C@@H]2OC[C@@H](O)[C@H](O)[C@H]2O)c2ccccc2c1,O,0,0,9.22,['9.22'],['combined_training_datasets_unique.sdf']
5613,Oc1cc(O[C@@H]2OC[C@@H](O)[C@H](O)[C@H]2O)cc2ccccc12,O,0,0,8.66,['8.66'],['combined_training_datasets_unique.sdf']
5614,Oc1cc2ccccc2cc1O[C@@H]1OC[C@@H](O)[C@H](O)[C@H]1O,O,0,0,8.76,['8.76'],['combined_training_datasets_unique.sdf']
5615,Oc1ccc(-c2cc(=S)ss2)cc1,O,0,0,7.86,['7.86'],['combined_training_datasets_unique.sdf']
5616,Oc1ccc(-c2ccccc2)cc1,O,0,0,9.485,['9.485'],['combined_training_datasets_unique.sdf']
5617,Oc1ccc(/N=N/c2ccccc2)cc1,O,0,0,8.44,['8.44'],['combined_training_datasets_unique.sdf']
5618,Oc1ccc(/N=N/c2nc3ccccc3s2)c2cccnc12,O,0,0,7.2,['7.2'],['combined_training_datasets_unique.sdf']
5619,Oc1ccc(Br)c2nc3cc(Cl)c(Cl)cc3nc12,O,0,0,8.42,['8.42'],['combined_training_datasets_unique.sdf']
5620,Oc1ccc(Br)cc1,O,0,0,9.24,['9.24'],['combined_training_datasets_unique.sdf']
5621,Oc1ccc(Br)cc1-c1cc(Br)ccc1O,O,0,0,8.6,['8.6'],['combined_training_datasets_unique.sdf']
5622,Oc1ccc(Br)cc1Br,O,0,0,7.77,['7.77'],['combined_training_datasets_unique.sdf']
5623,Oc1ccc(Cl)c(Cl)c1,O,0,0,8.58,['8.58'],['combined_training_datasets_unique.sdf']
5624,Oc1ccc(Cl)c2ccccc12,O,0,0,8.64,['8.64'],['combined_training_datasets_unique.sdf']
5625,Oc1ccc(Cl)cc1,O,0,0,9.316667,['9.316667'],['combined_training_datasets_unique.sdf']
5626,Oc1ccc(Cl)cc1Cl,O,0,0,7.85,['7.85'],['combined_training_datasets_unique.sdf']
5627,Oc1ccc(F)cc1,O,0,0,9.885,['9.885'],['combined_training_datasets_unique.sdf']
5628,Oc1ccc(I)c2nc3cc(Cl)c(Cl)cc3nc12,O,0,0,7.7,['7.7'],['combined_training_datasets_unique.sdf']
5629,Oc1ccc(I)cc1,O,0,0,9.32,['9.32'],['combined_training_datasets_unique.sdf']
5630,Oc1ccc(O)n1O,O,0,0,6.04,['6.04'],['combined_training_datasets_unique.sdf']
5631,Oc1ccc(OCc2ccccc2)cc1,O,0,0,10.47,['10.47'],['combined_training_datasets_unique.sdf']
5632,Oc1ccc(O[C@@H]2OC[C@@H](O)[C@H](O)[C@H]2O)c2ccccc12,O,0,0,9.4,['9.4'],['combined_training_datasets_unique.sdf']
5633,Oc1ccc2[nH]ncc2c1,O,0,0,10.05,['10.05'],['combined_training_datasets_unique.sdf']
5634,Oc1ccc2c(O[C@@H]3OC[C@@H](O)[C@H](O)[C@H]3O)cccc2c1,O,0,0,9.34,['9.34'],['combined_training_datasets_unique.sdf']
5635,Oc1ccc2c(c1)C1c3cccc[n+]3C2CC1(c1ccoc1)c1ccoc1,O,0,0,8.8,['8.8'],['combined_training_datasets_unique.sdf']
5636,Oc1ccc2c(c1)CCC2,O,0,0,10.29,['10.29'],['combined_training_datasets_unique.sdf']
5637,Oc1ccc2c(c1)CCCC2,O,0,0,10.33,['10.33'],['combined_training_datasets_unique.sdf']
5638,Oc1ccc2c(c1)Cc1ccccc1-2,O,0,0,9.51,['9.51'],['combined_training_datasets_unique.sdf']
5639,Oc1ccc2cc(Br)ccc2c1,O,0,0,9.2,['9.2'],['combined_training_datasets_unique.sdf']
5640,Oc1ccc2cc(Cl)ccc2c1,O,0,0,9.31,['9.31'],['combined_training_datasets_unique.sdf']
5641,Oc1ccc2cc(I)ccc2c1,O,0,0,9.23,['9.23'],['combined_training_datasets_unique.sdf']
5642,Oc1ccc2cc(O[C@@H]3OC[C@@H](O)[C@H](O)[C@H]3O)ccc2c1,O,0,0,9.63,['9.63'],['combined_training_datasets_unique.sdf']
5643,Oc1ccc2cc3ccccc3cc2c1,O,0,0,9.92,['9.92'],['combined_training_datasets_unique.sdf']
5644,Oc1ccc2ccc(Cl)cc2c1,O,0,0,9.09,['9.09'],['combined_training_datasets_unique.sdf']
5645,Oc1ccc2ccc(O[C@@H]3OC[C@@H](O)[C@H](O)[C@H]3O)cc2c1,O,0,0,9.41,['9.41'],['combined_training_datasets_unique.sdf']
5646,Oc1ccc2ccc3ccccc3c2c1,O,0,0,9.28,['9.28'],['combined_training_datasets_unique.sdf']
5647,Oc1ccc2cccc(-c3ccccc3)c2c1,O,0,0,9.38,['9.38'],['combined_training_datasets_unique.sdf']
5648,Oc1ccc2cccc(Br)c2c1,O,0,0,8.94,['8.94'],['combined_training_datasets_unique.sdf']
5649,Oc1ccc2cccc(Cl)c2c1,O,0,0,8.69,['8.69'],['combined_training_datasets_unique.sdf']
5650,Oc1ccc2cccc(I)c2c1,O,0,0,8.98,['8.98'],['combined_training_datasets_unique.sdf']
5651,Oc1ccc2cccc(O[C@@H]3OC[C@@H](O)[C@H](O)[C@H]3O)c2c1,O,0,0,9.35,['9.35'],['combined_training_datasets_unique.sdf']
5652,Oc1ccc2ccccc2c1,O,0,0,9.5,['9.5'],['combined_training_datasets_unique.sdf']
5653,Oc1ccc2ccccc2c1O[C@@H]1OC[C@@H](O)[C@H](O)[C@H]1O,O,0,0,8.63,['8.63'],['combined_training_datasets_unique.sdf']
5654,Oc1ccc2cn[nH]c2c1,O,0,0,9.35,['9.35'],['combined_training_datasets_unique.sdf']
5655,Oc1ccc[n+]2c1C1c3ccccc3C2CC1(c1ccoc1)c1ccoc1,O,0,0,4.88,['4.88'],['combined_training_datasets_unique.sdf']
5656,Oc1cccc(-c2ccccc2)c1,O,0,0,9.59,['9.59'],['combined_training_datasets_unique.sdf']
5657,Oc1cccc(Br)c1,O,0,0,8.99,['8.99'],['combined_training_datasets_unique.sdf']
5658,Oc1cccc(C(F)(F)F)c1,O,0,0,8.9,['8.9'],['combined_training_datasets_unique.sdf']
5659,Oc1cccc(Cl)c1,O,0,0,8.96,['8.96'],['combined_training_datasets_unique.sdf']
5660,Oc1cccc(Cl)c1Cl,O,0,0,7.71,['7.71'],['combined_training_datasets_unique.sdf']
5661,Oc1cccc(F)c1,O,0,0,9.29,['9.29'],['combined_training_datasets_unique.sdf']
5662,Oc1cccc(I)c1,O,0,0,9.02,['9.02'],['combined_training_datasets_unique.sdf']
5663,Oc1cccc2[nH]ncc12,O,0,0,8.65,['8.65'],['combined_training_datasets_unique.sdf']
5664,Oc1cccc2c(O[C@@H]3OC[C@@H](O)[C@H](O)[C@H]3O)cccc12,O,0,0,9.16,['9.16'],['combined_training_datasets_unique.sdf']
5665,Oc1cccc2c1-c1c(O)cccc1-2,O,0,0,9.58,['9.58'],['combined_training_datasets_unique.sdf']
5666,Oc1cccc2c1-c1ccccc1-2,O,0,0,8.64,['8.64'],['combined_training_datasets_unique.sdf']
5667,Oc1cccc2c1C1c3cccc[n+]3C2CC1(c1ccoc1)c1ccoc1,O,0,0,8.6,['8.6'],['combined_training_datasets_unique.sdf']
5668,Oc1cccc2c1CCC2,O,0,0,10.2,['10.2'],['combined_training_datasets_unique.sdf']
5669,Oc1cccc2c1CCCC2,O,0,0,10.46,['10.46'],['combined_training_datasets_unique.sdf']
5670,Oc1cccc2c1Nc1ccccc1N2,O,0,0,10.88,['10.88'],['combined_training_datasets_unique.sdf']
5671,Oc1cccc2cc(O[C@@H]3OC[C@@H](O)[C@H](O)[C@H]3O)ccc12,O,0,0,9.17,['9.17'],['combined_training_datasets_unique.sdf']
5672,Oc1cccc2cc3ccccc3cc12,O,0,0,9.88,['9.88'],['combined_training_datasets_unique.sdf']
5673,Oc1cccc2ccc(O[C@@H]3OC[C@@H](O)[C@H](O)[C@H]3O)cc12,O,0,0,9.29,['9.29'],['combined_training_datasets_unique.sdf']
5674,Oc1cccc2cccc(O[C@@H]3OC[C@@H](O)[C@H](O)[C@H]3O)c12,O,0,0,10.13,['10.13'],['combined_training_datasets_unique.sdf']
5675,Oc1cccc2ccccc12,O,0,0,9.44,['9.44'],['combined_training_datasets_unique.sdf']
5676,Oc1cccc2cncnc12,O,0,0,8.65,['8.65'],['combined_training_datasets_unique.sdf']
5677,Oc1cccc2scnc12,O,0,0,8.77,['8.77'],['combined_training_datasets_unique.sdf']
5678,Oc1ccccc1,O,0,0,9.9675,['9.9675'],['combined_training_datasets_unique.sdf']
5679,Oc1ccccc1-c1cc2ccccc2cc1O,O,0,0,7.55,['7.55'],['combined_training_datasets_unique.sdf']
5680,Oc1ccccc1-c1ccccc1,O,0,0,9.945,['9.945'],['combined_training_datasets_unique.sdf']
5681,Oc1ccccc1-c1ccccc1O,O,0,0,7.5,['7.5'],['combined_training_datasets_unique.sdf']
5682,Oc1ccccc1Br,O,0,0,8.4,['8.4'],['combined_training_datasets_unique.sdf']
5683,Oc1ccccc1Cl,O,0,0,8.676667,['8.676667'],['combined_training_datasets_unique.sdf']
5684,Oc1ccccc1F,O,0,0,8.77,['8.77'],['combined_training_datasets_unique.sdf']
5685,Oc1ccccc1I,O,0,0,8.4,['8.4'],['combined_training_datasets_unique.sdf']
5686,Oc1ccccc1O,O,0,0,10.445,['10.445'],['combined_training_datasets_unique.sdf']
5687,Oc1ccccc1SCc1ccccc1,O,0,0,9.06,['9.06'],['combined_training_datasets_unique.sdf']
5688,Oc1cncnc1,O,0,0,6.78,['6.78'],['combined_training_datasets_unique.sdf']
5689,Oc1cnoc1,O,0,0,7.75,['7.75'],['combined_training_datasets_unique.sdf']
5690,Oc1oc(-c2ccccc2)nc1Cc1ccccc1,O,0,0,8.72,['8.72'],['combined_training_datasets_unique.sdf']
5691,On1nnc2c(Cl)cccc21,O,0,0,3.9,['3.9'],['combined_training_datasets_unique.sdf']
5692,On1nnc2cc(Cl)ccc21,O,0,0,4.18,['4.18'],['combined_training_datasets_unique.sdf']
5693,On1nnc2ccc(Br)cc21,O,0,0,3.97,['3.97'],['combined_training_datasets_unique.sdf']
5694,On1nnc2ccc(C(F)(F)F)cc21,O,0,0,3.97,['3.97'],['combined_training_datasets_unique.sdf']
5695,On1nnc2ccc(Cl)cc21,O,0,0,4.15,['4.15'],['combined_training_datasets_unique.sdf']
5696,On1nnc2ccccc21,O,0,0,4.6,['4.6'],['combined_training_datasets_unique.sdf']
5697,S=C(NC(=S)c1ccccc1)Nc1ccccc1,O,0,0,10.72,['10.72'],['combined_training_datasets_unique.sdf']
5698,S=C(Nc1ccc(Br)cc1)c1ccc(Cl)cc1,O,0,0,10.24,['10.24'],['combined_training_datasets_unique.sdf']
5699,S=C(Nc1ccc(Br)cc1)c1cccc(Br)c1,O,0,0,9.96,['9.96'],['combined_training_datasets_unique.sdf']
5700,S=C(Nc1ccc(Br)cc1)c1ccccc1,O,0,0,10.42,['10.42'],['combined_training_datasets_unique.sdf']
5701,S=C(Nc1ccc(Cl)c(Cl)c1)c1ccc(Cl)cc1,O,0,0,9.51,['9.51'],['combined_training_datasets_unique.sdf']
5702,S=C(Nc1ccc(Cl)c(Cl)c1)c1cccc(Br)c1,O,0,0,9.26,['9.26'],['combined_training_datasets_unique.sdf']
5703,S=C(Nc1ccc(Cl)c(Cl)c1)c1ccccc1,O,0,0,9.96,['9.96'],['combined_training_datasets_unique.sdf']
5704,S=C(Nc1ccc(Cl)cc1)c1ccc(Cl)cc1,O,0,0,10.25,['10.25'],['combined_training_datasets_unique.sdf']
5705,S=C(Nc1ccc(Cl)cc1)c1cccc(Br)c1,O,0,0,10.1,['10.1'],['combined_training_datasets_unique.sdf']
5706,S=C(Nc1ccc(Cl)cc1)c1ccccc1,O,0,0,10.85,['10.85'],['combined_training_datasets_unique.sdf']
5707,S=C(Nc1ccccc1)c1ccc(Cl)cc1,O,0,0,10.76,['10.76'],['combined_training_datasets_unique.sdf']
5708,S=C(Nc1ccccc1)c1cccc(Br)c1,O,0,0,10.49,['10.49'],['combined_training_datasets_unique.sdf']
5709,S=C(Nc1ccccc1)c1ccccc1,O,0,0,10.86,['10.86'],['combined_training_datasets_unique.sdf']
5710,S=C(S)N1CCCC1,O,0,0,2.97,['2.97'],['combined_training_datasets_unique.sdf']
5711,S=C(S)NC1CCCCC1,O,0,0,2.95,['2.95'],['combined_training_datasets_unique.sdf']
5712,S=C1NC(=S)C(c2ccccc2)N1,O,0,0,8.15,['8.15'],['combined_training_datasets_unique.sdf']
5713,S=C1NCCO1,O,0,0,11.05,['11.05'],['combined_training_datasets_unique.sdf']
5714,S=CNc1ccc(Cl)cc1,O,0,0,10.8,['10.8'],['combined_training_datasets_unique.sdf']
5715,S=CNc1cccc(Cl)c1,O,0,0,10.8,['10.8'],['combined_training_datasets_unique.sdf']
5716,S=CNc1ccccc1Cl,O,0,0,10.03,['10.03'],['combined_training_datasets_unique.sdf']
5717,S=c1[nH]c(=S)c2[nH]cnc2[nH]1,O,0,0,7.495,['7.495'],['combined_training_datasets_unique.sdf']
5718,S=c1[nH]c2cc3c(cc2[nH]1)CCCC3,O,0,0,10.43,['10.43'],['combined_training_datasets_unique.sdf']
5719,S=c1[nH]c2cc3ccccc3cc2[nH]1,O,0,0,9.84,['9.84'],['combined_training_datasets_unique.sdf']
5720,S=c1[nH]c2ccccc2[nH]1,O,0,0,10.24,['10.24'],['combined_training_datasets_unique.sdf']
5721,S=c1[nH]c2ccccc2o1,O,0,0,6.33,['6.33'],['combined_training_datasets_unique.sdf']
5722,S=c1[nH]c2cncnc2[nH]1,O,0,0,8.9,['8.9'],['combined_training_datasets_unique.sdf']
5723,S=c1[nH]ccc2ccccc12,O,0,0,10.82,['10.82'],['combined_training_datasets_unique.sdf']
5724,S=c1[nH]nco1,O,0,0,3.85,['3.85'],['combined_training_datasets_unique.sdf']
5725,S=c1cc2ccccc2c[nH]1,O,0,0,8.58,['8.58'],['combined_training_datasets_unique.sdf']
5726,S=c1ccc2ccccc2[nH]1,O,0,0,10.21,['10.21'],['combined_training_datasets_unique.sdf']
5727,S=c1cccc[nH]1,O,0,0,9.89,['9.89'],['combined_training_datasets_unique.sdf']
5728,S=c1nc(CCc2ccccc2)[nH]o1,O,0,0,3.58,['3.58'],['combined_training_datasets_unique.sdf']
5729,S=c1ncc2[nH]cnc2[nH]1,O,0,0,8.775,['8.775'],['combined_training_datasets_unique.sdf']
5730,S=c1ncc2nccnc2[nH]1,O,0,0,6.52,['6.52'],['combined_training_datasets_unique.sdf']
5731,SCc1ccccc1,O,0,0,9.43,['9.43'],['combined_training_datasets_unique.sdf']
5732,[11CH3]NC(=O)C(CC[NH+]1CCC(O)(c2ccc(Cl)cc2)CC1)(c1ccccc1)c1ccccc1,O,0,0,7.96,['7.96'],['combined_training_datasets_unique.sdf']
5733,[4H]c1c([4H])c([4H])c(C(=O)[O-])c([4H])c1[4H],O,0,0,4.18,['4.18'],['combined_training_datasets_unique.sdf']
5734,[N-]=[N+]=Nc1ncnc2nc[nH]c12,O,0,0,7.6,['7.6'],['combined_training_datasets_unique.sdf']
5735,[NH2+]=CN1C2CC(OC(=O)C(CO)c3ccccc3)CC1C1OC12,O,0,0,9.78,['9.78'],['combined_training_datasets_unique.sdf']
5736,[NH2+]=CN1C2CCC1CC(OC(=O)C(CO)c1ccccc1)C2,O,0,0,10.33,['10.33'],['combined_training_datasets_unique.sdf']
5737,[NH3+]C(CO)CO,O,0,0,8.63,['8.63'],['combined_training_datasets_unique.sdf']
5738,[NH3+]C1(C(=O)N[C@H](Cc2c[nH]c3ccccc23)C(=O)N2CCC3(CCc4ccccc43)CC2)CC1,O,0,0,5.9,['5.9'],['combined_training_datasets_unique.sdf']
5739,[NH3+]C12CC3CC(CC(C3)C1)C2,O,0,0,10.71,['10.71'],['combined_training_datasets_unique.sdf']
5740,[NH3+]C12CCC(C1)C2,O,0,0,9.3,['9.3'],['combined_training_datasets_unique.sdf']
5741,[NH3+]C12CCC(CC1)C2,O,0,0,10.19,['10.19'],['combined_training_datasets_unique.sdf']
5742,[NH3+]C1CC1,O,0,0,9.1,['9.1'],['combined_training_datasets_unique.sdf']
5743,[NH3+]C1CCCCC1,O,0,0,10.67,['10.67'],['combined_training_datasets_unique.sdf']
5744,[NH3+]C1CCCc2ccccc21,O,0,0,9.66,['9.66'],['combined_training_datasets_unique.sdf']
5745,[NH3+]C1CCN(OCc2ccccc2)C1=O,O,0,0,6.4,['6.4'],['combined_training_datasets_unique.sdf']
5746,[NH3+]C1CCc2ccccc2C1,O,0,0,9.97,['9.97'],['combined_training_datasets_unique.sdf']
5747,[NH3+]C1Cc2ccccc2C1,O,0,0,9.55,['9.55'],['combined_training_datasets_unique.sdf']
5748,[NH3+]C1OC(CO)C(O)C(O)C1O,O,0,0,5.6,['5.6'],['combined_training_datasets_unique.sdf']
5749,[NH3+]C1OCC(O)C(O)C1O,O,0,0,5.6,['5.6'],['combined_training_datasets_unique.sdf']
5750,[NH3+]CC(=O)Nc1ccccc1,O,0,0,8.12,['8.12'],['combined_training_datasets_unique.sdf']
5751,[NH3+]CC(N=O)c1ccc(Sc2cc(F)cc(C3CCOCC3)c2)cc1,O,0,0,11.5,['11.5'],['combined_training_datasets_unique.sdf']
5752,[NH3+]CC(O)CO,O,0,0,9.3,['9.3'],['combined_training_datasets_unique.sdf']
5753,[NH3+]CC(O)c1ccc(Cl)cc1,O,0,0,9.04,['9.04'],['combined_training_datasets_unique.sdf']
5754,[NH3+]CC(O)c1ccccc1,O,0,0,8.94,['8.94'],['combined_training_datasets_unique.sdf']
5755,[NH3+]CC1CCCCC1,O,0,0,10.52,['10.52'],['combined_training_datasets_unique.sdf']
5756,[NH3+]CC=C(Cl)Cl,O,0,0,9.3,['9.3'],['combined_training_datasets_unique.sdf']
5757,[NH3+]CCBr,O,0,0,8.5,['8.5'],['combined_training_datasets_unique.sdf']
5758,[NH3+]CCC(=O)c1ccccc1,O,0,0,8.3,['8.3'],['combined_training_datasets_unique.sdf']
5759,[NH3+]CCC=C(Cl)Cl,O,0,0,9.85,['9.85'],['combined_training_datasets_unique.sdf']
5760,[NH3+]CCCBr,O,0,0,8.93,['8.93'],['combined_training_datasets_unique.sdf']
5761,[NH3+]CCCC(F)(F)F,O,0,0,9.7,['9.7'],['combined_training_datasets_unique.sdf']
5762,[NH3+]CCCCBr,O,0,0,10.0,['10.0'],['combined_training_datasets_unique.sdf']
5763,[NH3+]CCCCCCBr,O,0,0,10.6,['10.6'],['combined_training_datasets_unique.sdf']
5764,[NH3+]CCCCCCO,O,0,0,10.62,['10.62'],['combined_training_datasets_unique.sdf']
5765,[NH3+]CCCCCO,O,0,0,10.52,['10.52'],['combined_training_datasets_unique.sdf']
5766,[NH3+]CCCCCc1ccccc1,O,0,0,10.51,['10.51'],['combined_training_datasets_unique.sdf']
5767,[NH3+]CCCCO,O,0,0,10.35,['10.35'],['combined_training_datasets_unique.sdf']
5768,[NH3+]CCCCOc1c2ccccc2cc2ccccc12,O,0,0,9.94,['9.94'],['combined_training_datasets_unique.sdf']
5769,[NH3+]CCCCc1ccccc1,O,0,0,10.39,['10.39'],['combined_training_datasets_unique.sdf']
5770,[NH3+]CCCCl,O,0,0,9.89,['9.89'],['combined_training_datasets_unique.sdf']
5771,[NH3+]CCCF,O,0,0,9.9,['9.9'],['combined_training_datasets_unique.sdf']
5772,[NH3+]CCCO,O,0,0,10.0,['10.0'],['combined_training_datasets_unique.sdf']
5773,[NH3+]CCC[n+]1cc(Br)c2ccccc2c1,O,0,0,9.53,['9.53'],['combined_training_datasets_unique.sdf']
5774,[NH3+]CCC[n+]1ccc2ccccc2c1,O,0,0,8.97,['8.97'],['combined_training_datasets_unique.sdf']
5775,[NH3+]CCCc1ccccc1,O,0,0,10.27,['10.27'],['combined_training_datasets_unique.sdf']
5776,[NH3+]CCCl,O,0,0,8.49,['8.49'],['combined_training_datasets_unique.sdf']
5777,[NH3+]CCF,O,0,0,8.895,['8.895'],['combined_training_datasets_unique.sdf']
5778,[NH3+]CCN1C(=O)C=NC(c2ccccc2F)c2cc(Cl)ccc21,O,0,0,11.6,['11.6'],['combined_training_datasets_unique.sdf']
5779,[NH3+]CCNC(=O)c1ccccc1,O,0,0,9.13,['9.13'],['combined_training_datasets_unique.sdf']
5780,[NH3+]CCO,O,0,0,9.525,['9.525'],['combined_training_datasets_unique.sdf']
5781,[NH3+]CCOCCO,O,0,0,9.43,['9.43'],['combined_training_datasets_unique.sdf']
5782,[NH3+]CCc1c[nH]c2ccccc12,O,0,0,10.2,['10.2'],['combined_training_datasets_unique.sdf']
5783,[NH3+]CCc1ccc(Br)cc1,O,0,0,9.65,['9.65'],['combined_training_datasets_unique.sdf']
5784,[NH3+]CCc1ccc(Cl)cc1,O,0,0,9.66,['9.66'],['combined_training_datasets_unique.sdf']
5785,[NH3+]CCc1ccccc1,O,0,0,9.485,['9.485'],['combined_training_datasets_unique.sdf']
5786,[NH3+]C[C@@H]1C[C@@]1(C(=O)N1Cc2ccccc2C1)c1cccs1,O,0,0,9.5,['9.5'],['combined_training_datasets_unique.sdf']
5787,[NH3+]C[C@H](COCc1cccc2ccccc12)OC(=O)NCCCCCCO,O,0,0,8.9,['8.9'],['combined_training_datasets_unique.sdf']
5788,[NH3+]C[C@H]1CCCC[C@@H]1O,O,0,0,10.18,['10.18'],['combined_training_datasets_unique.sdf']
5789,[NH3+]Cc1ccc(C=O)o1,O,0,0,8.1,['8.1'],['combined_training_datasets_unique.sdf']