,Solute SMILES,Solvent SMILES,Solute CAS,Solute IUPAC,pKa (avg),pKa (all),Source
4152,Cn1ccnc1N,O,0,0,8.54,['8.54'],['combined_training_datasets_unique.sdf']
4153,Cn1cnc(NN=O)n1,O,0,0,5.48,['5.48'],['combined_training_datasets_unique.sdf']
4154,Cn1cnc2[nH]c(=O)[nH]c(=O)c21,O,0,0,9.525,['9.525'],['combined_training_datasets_unique.sdf']
4155,Cn1cnc2[nH]c(=O)[nH]c(=S)c21,O,0,0,6.8,['6.8'],['combined_training_datasets_unique.sdf']
4156,Cn1cnc2c(=O)[nH]c(=O)[nH]c21,O,0,0,8.325,['8.325'],['combined_training_datasets_unique.sdf']
4157,Cn1cnc2c(=O)[nH]c(N)nc21,O,0,0,9.92,['9.92'],['combined_training_datasets_unique.sdf']
4158,Cn1cnc2c(=O)[nH]cnc21,O,0,0,9.11,['9.11'],['combined_training_datasets_unique.sdf']
4159,Cn1cnc2c1c(=O)[nH]c(=O)n2C,O,0,0,9.92,['9.92'],['combined_training_datasets_unique.sdf']
4160,Cn1cnc2cc(N)ccc21,O,0,0,4.69,['4.69'],['combined_training_datasets_unique.sdf']
4161,Cn1cnc2cccc(N)c21,O,0,0,5.79,['5.79'],['combined_training_datasets_unique.sdf']
4162,Cn1cnc2ccccc21,O,0,0,5.625,['5.625'],['combined_training_datasets_unique.sdf']
4163,Cn1cnc2cnc(=O)[nH]c21,O,0,0,9.19,['9.19'],['combined_training_datasets_unique.sdf']
4164,Cn1cnc2nc(N)[nH]c(=O)c21,O,0,0,8.43,['8.43'],['combined_training_datasets_unique.sdf']
4165,Cn1cnc2nc[nH]c(=O)c21,O,0,0,8.8,['8.8'],['combined_training_datasets_unique.sdf']
4166,Cn1cnc2ncncc21,O,0,0,2.29,['2.29'],['combined_training_datasets_unique.sdf']
4167,Cn1cncc1C1CCN(C(=O)CCS(=O)(=O)c2ccc3cc(Cl)ccc3c2)CC1,O,0,0,7.2,['7.2'],['combined_training_datasets_unique.sdf']
4168,Cn1cncn1,O,0,0,2.31,['2.31'],['combined_training_datasets_unique.sdf']
4169,Cn1nc(C(=O)NC2CC3CCCC(C2)[NH+]3C)c2ccccc21,O,0,0,9.0,['9.0'],['combined_training_datasets_unique.sdf']
4170,Cn1nc(Cl)nc1NN=O,O,0,0,4.03,['4.03'],['combined_training_datasets_unique.sdf']
4171,Cn1nc(NN=O)nc1N1CCCCC1,O,0,0,5.46,['5.46'],['combined_training_datasets_unique.sdf']
4172,Cn1nc(S(N)(=O)=O)s/c1=N\C(=O)C(F)(F)F,O,0,0,6.6,['6.6'],['combined_training_datasets_unique.sdf']
4173,Cn1ncc2c(=O)[nH]cnc21,O,0,0,9.26,['9.26'],['combined_training_datasets_unique.sdf']
4174,Cn1ncc2c(N)ncnc21,O,0,0,4.32,['4.32'],['combined_training_datasets_unique.sdf']
4175,Cn1ncc2c(NC(C)(C)CC(C)(C)C)ncnc21,O,0,0,3.96,['3.96'],['combined_training_datasets_unique.sdf']
4176,Cn1ncc2c(NCCO)ncnc21,O,0,0,3.86,['3.86'],['combined_training_datasets_unique.sdf']
4177,Cn1ncc2c(NCc3ccccc3)ncnc21,O,0,0,3.66,['3.66'],['combined_training_datasets_unique.sdf']
4178,Cn1ncc2c(NCc3ccco3)ncnc21,O,0,0,3.8,['3.8'],['combined_training_datasets_unique.sdf']
4179,Cn1ncc2c(Nc3ccccc3)ncnc21,O,0,0,3.53,['3.53'],['combined_training_datasets_unique.sdf']
4180,Cn1ncc2cncnc21,O,0,0,2.5,['2.5'],['combined_training_datasets_unique.sdf']
4181,Cn1nccc1-c1cc(Cl)ccc1Oc1cc(F)c(S(=O)(=O)Nc2ncns2)cc1F,O,0,0,3.5,['3.5'],['combined_training_datasets_unique.sdf']
4182,Cn1nccc1-c1cc(Cl)ccc1Oc1cc(F)c(S(=O)(=O)Nc2nncs2)cc1Cl,O,0,0,4.5,['4.5'],['combined_training_datasets_unique.sdf']
4183,Cn1nccc1-c1cc(Cl)ccc1Oc1ccc(S(=O)(=O)Nc2ncns2)cc1C#N,O,0,0,3.5,['3.5'],['combined_training_datasets_unique.sdf']
4184,Cn1nccc1-c1cc(Cl)ccc1Oc1ccc(S(=O)(=O)Nc2ncns2)cc1F,O,0,0,3.5,['3.5'],['combined_training_datasets_unique.sdf']
4185,Cn1nccc1-c1cc(Cl)ccc1Oc1ccc(S(=O)(=O)Nc2nncs2)cc1C#N,O,0,0,4.5,['4.5'],['combined_training_datasets_unique.sdf']
4186,Cn1nccc1N,O,0,0,4.23,['4.23'],['combined_training_datasets_unique.sdf']
4187,Cn1ncnc1NN=O,O,0,0,4.45,['4.45'],['combined_training_datasets_unique.sdf']
4188,Cn1nnc(CC(=O)[O-])n1,O,0,0,3.44,['3.44'],['combined_training_datasets_unique.sdf']
4189,Cn1nnnc1CC(=O)[O-],O,0,0,2.83,['2.83'],['combined_training_datasets_unique.sdf']
4190,Cn1nnnc1Cc1ncc(Cl)cc1NS(=O)(=O)c1ccc(Cl)c(Cl)c1,O,0,0,4.7,['4.7'],['combined_training_datasets_unique.sdf']
4191,FC(Cc1c[nH]c2ccc(-n3cnnc3)cc12)C[NH+]1CCC(Cc2ccccc2)CC1,O,0,0,8.7,['8.7'],['combined_training_datasets_unique.sdf']
4192,FC(F)(Cc1c[nH]c2ccc(-n3cnnc3)cc12)CN1CCC(Cc2ccccc2)CC1,O,0,0,6.7,['6.7'],['combined_training_datasets_unique.sdf']
4193,FC(F)(Cc1c[nH]c2ccc(-n3cnnc3)cc12)CN1CCC(OCc2ccccc2)CC1,O,0,0,5.9,['5.9'],['combined_training_datasets_unique.sdf']
4194,FC(F)(F)c1c(N2CCC(c3ccccc3)CC2)ccn2c(CC3CC3)nnc12,O,0,0,4.1,['4.1'],['combined_training_datasets_unique.sdf']
4195,FC(F)(F)c1cc(-c2ccccc2)nnc1NCC[NH+]1CCOCC1,O,0,0,6.75,['6.75'],['combined_training_datasets_unique.sdf']
4196,FC(F)(F)c1cc(C(F)(F)F)[nH]n1,O,0,0,7.51,['7.51'],['combined_training_datasets_unique.sdf']
4197,FC(F)(F)c1ccc2cccnc2c1,O,0,0,3.16,['3.16'],['combined_training_datasets_unique.sdf']
4198,FC(F)(F)c1cccc(NC=S)c1,O,0,0,10.78,['10.78'],['combined_training_datasets_unique.sdf']
4199,FC(F)(F)c1cccc2ncccc12,O,0,0,3.09,['3.09'],['combined_training_datasets_unique.sdf']
4200,FC(F)(F)c1ccccc1NC1=[NH+]CCN1,O,0,0,8.8,['8.8'],['combined_training_datasets_unique.sdf']
4201,FC(F)(F)c1nc2ncncc2[nH]1,O,0,0,5.12,['5.12'],['combined_training_datasets_unique.sdf']
4202,FC(F)(F)c1ncnc2nc[nH]c12,O,0,0,7.35,['7.35'],['combined_training_datasets_unique.sdf']
4203,FC(F)C1Cc2ccc(Br)cc2CN1,O,0,0,6.12,['6.12'],['combined_training_datasets_unique.sdf']
4204,FC(F)C1Cc2ccccc2CN1,O,0,0,6.42,['6.42'],['combined_training_datasets_unique.sdf']
4205,FC1(Cc2ccccc2)CC[NH+](CCCc2c[nH]c3ccc(-n4cnnc4)cc23)CC1,O,0,0,8.8,['8.8'],['combined_training_datasets_unique.sdf']
4206,FC1(F)CCCNC1,O,0,0,7.4,['7.4'],['combined_training_datasets_unique.sdf']
4207,FC1(F)CC[NH2+]CC1,O,0,0,8.5,['8.5'],['combined_training_datasets_unique.sdf']
4208,FC1CCC[NH2+]C1,O,0,0,9.3,['9.3'],['combined_training_datasets_unique.sdf']
4209,FC1CC[NH2+]CC1,O,0,0,9.4,['9.4'],['combined_training_datasets_unique.sdf']
4210,FCCc1noc(C2=CCC[NH2+]C2)n1,O,0,0,8.29,['8.29'],['combined_training_datasets_unique.sdf']
4211,Fc1c(NC2CC2)nc(C2CC2)nc1N1CCCCCC1,O,0,0,6.44,['6.44'],['combined_training_datasets_unique.sdf']
4212,Fc1c(NC2CC2)nc(C2CC2)nc1N1CCSCC1,O,0,0,5.27,['5.27'],['combined_training_datasets_unique.sdf']
4213,Fc1cc(-c2cn[nH]n2)ccn1,O,0,0,7.59,['7.59'],['combined_training_datasets_unique.sdf']
4214,Fc1cc(F)c(F)c([S-])c1F,O,0,0,2.75,['2.75'],['combined_training_datasets_unique.sdf']
4215,Fc1ccc(C(c2ccc(F)cc2)N2CC[NH+](C/C=C/c3ccccc3)CC2)cc1,O,0,0,7.71,['7.71'],['combined_training_datasets_unique.sdf']
4216,Fc1ccc(CN(Cc2nn[n-]n2)c2ccccc2)c(F)c1,O,0,0,4.13,['4.13'],['combined_training_datasets_unique.sdf']
4217,Fc1ccc(CN(Cc2nn[n-]n2)c2ccccc2)cc1,O,0,0,4.2,['4.2'],['combined_training_datasets_unique.sdf']
4218,Fc1ccc(N2CC[NH+](Cc3ccn4c(CC5CC5)nnc4c3C(F)(F)F)CC2)c(F)c1,O,0,0,5.0,['5.0'],['combined_training_datasets_unique.sdf']
4219,Fc1ccc(NC(=S)c2ccc(Cl)cc2)cc1,O,0,0,10.41,['10.41'],['combined_training_datasets_unique.sdf']
4220,Fc1ccc(NC(=S)c2cccc(Br)c2)cc1,O,0,0,10.32,['10.32'],['combined_training_datasets_unique.sdf']
4221,Fc1ccc(NC(=S)c2ccccc2)cc1,O,0,0,10.77,['10.77'],['combined_training_datasets_unique.sdf']
4222,Fc1ccc(NC=S)cc1,O,0,0,11.25,['11.25'],['combined_training_datasets_unique.sdf']
4223,Fc1ccc(Nc2c3ccccc3nc3ccccc23)cc1,O,0,0,7.5,['7.5'],['combined_training_datasets_unique.sdf']
4224,Fc1ccc([C@@H]2CC[NH2+]C[C@H]2COc2ccc3c(c2)OCO3)cc1,O,0,0,9.843333,['9.843333'],['combined_training_datasets_unique.sdf']
4225,Fc1ccc([S-])cc1,O,0,0,6.35,['6.35'],['combined_training_datasets_unique.sdf']
4226,Fc1ccc2c(c1)N(CCC[NH+]1CCCC1)c1cc(F)ccc1CC2,O,0,0,7.75,['7.75'],['combined_training_datasets_unique.sdf']
4227,Fc1ccc2c(c1)N(CCC[NH+]1CCCCC1)c1cc(F)ccc1CC2,O,0,0,7.6,['7.6'],['combined_training_datasets_unique.sdf']
4228,Fc1ccc2c(c1)N(CCC[NH+]1CCOCC1)c1cc(F)ccc1CC2,O,0,0,7.6,['7.6'],['combined_training_datasets_unique.sdf']
4229,Fc1ccc2cccnc2c1,O,0,0,4.04,['4.04'],['combined_training_datasets_unique.sdf']
4230,Fc1ccc2ncccc2c1,O,0,0,4.0,['4.0'],['combined_training_datasets_unique.sdf']
4231,Fc1cccc(-c2cn[nH]n2)c1,O,0,0,8.38,['8.38'],['combined_training_datasets_unique.sdf']
4232,Fc1cccc(Br)c1N(CC1CC1)C1=[NH+]CCN1,O,0,0,10.7,['10.7'],['combined_training_datasets_unique.sdf']
4233,Fc1cccc(C(F)(F)F)c1N(CC1CC1)C1=[NH+]CCN1,O,0,0,10.7,['10.7'],['combined_training_datasets_unique.sdf']
4234,Fc1cccc(CN(Cc2nn[n-]n2)c2ccccc2)c1,O,0,0,4.19,['4.19'],['combined_training_datasets_unique.sdf']
4235,Fc1cccc(Cl)c1N(CC1CC1)C1=[NH+]CCN1,O,0,0,10.8,['10.8'],['combined_training_datasets_unique.sdf']
4236,Fc1cccc(Cl)c1NC1=[NH+]CCN1,O,0,0,8.01,['8.01'],['combined_training_datasets_unique.sdf']
4237,Fc1cccc(F)c1N(CC1CC1)C1=[NH+]CCN1,O,0,0,10.3,['10.3'],['combined_training_datasets_unique.sdf']
4238,Fc1cccc(F)c1NC1=[NH+]CCN1,O,0,0,8.253333,['8.253333'],['combined_training_datasets_unique.sdf']
4239,Fc1cccc(NC(=S)c2ccc(Cl)cc2)c1,O,0,0,10.16,['10.16'],['combined_training_datasets_unique.sdf']
4240,Fc1cccc(NC(=S)c2cccc(Br)c2)c1,O,0,0,10.01,['10.01'],['combined_training_datasets_unique.sdf']
4241,Fc1cccc(NC(=S)c2ccccc2)c1,O,0,0,10.29,['10.29'],['combined_training_datasets_unique.sdf']
4242,Fc1cccc(NC=S)c1,O,0,0,10.89,['10.89'],['combined_training_datasets_unique.sdf']
4243,Fc1cccc2[nH]cnc12,O,0,0,4.4,['4.4'],['combined_training_datasets_unique.sdf']
4244,Fc1cccc2ncccc12,O,0,0,3.68,['3.68'],['combined_training_datasets_unique.sdf']
4245,Fc1ccccc1CN(Cc1nn[n-]n1)c1ccccc1,O,0,0,4.22,['4.22'],['combined_training_datasets_unique.sdf']
4246,Fc1ccccc1Nc1c2ccccc2nc2ccccc12,O,0,0,6.84,['6.84'],['combined_training_datasets_unique.sdf']
4247,Fc1cccn2ccnc12,O,0,0,4.9,['4.9'],['combined_training_datasets_unique.sdf']
4248,Fc1cccnc1,O,0,0,2.97,['2.97'],['combined_training_datasets_unique.sdf']
4249,Ic1ccc(-c2nn[n-]n2)cc1,O,0,0,3.88,['3.88'],['combined_training_datasets_unique.sdf']
4250,Ic1ccc(Nc2c3ccccc3nc3ccccc23)cc1,O,0,0,6.9,['6.9'],['combined_training_datasets_unique.sdf']
4251,Ic1cccc(C2[NH2+]CCS2)c1,O,0,0,4.93,['4.93'],['combined_training_datasets_unique.sdf']
4252,Ic1ccccc1Nc1c2ccccc2nc2ccccc12,O,0,0,6.47,['6.47'],['combined_training_datasets_unique.sdf']
4253,Ic1cccnc1,O,0,0,3.25,['3.25'],['combined_training_datasets_unique.sdf']
4254,Ic1nn[n-]n1,O,0,0,2.85,['2.85'],['combined_training_datasets_unique.sdf']
4255,N#CC(=Nc1ccc(C(=O)[O-])cc1)C(C#N)C#N,O,0,0,4.2,['4.2'],['combined_training_datasets_unique.sdf']
4256,N#CC(C#N)=C(Br)C(C#N)C#N,O,0,0,2.6,['2.6'],['combined_training_datasets_unique.sdf']
4257,N#CC(C#N)=C(c1ccccc1)C(C#N)C#N,O,0,0,2.3,['2.3'],['combined_training_datasets_unique.sdf']
4258,N#CC(C#N)Cc1ccc(Cl)cc1,O,0,0,11.49,['11.49'],['combined_training_datasets_unique.sdf']
4259,N#CC(C#N)N=Nc1cccc(O)c1,O,0,0,6.45,['6.45'],['combined_training_datasets_unique.sdf']
4260,N#CC(C#N)N=Nc1ccccc1C(=O)[O-],O,0,0,6.7,['6.7'],['combined_training_datasets_unique.sdf']
4261,N#CC(C#N)N=Nc1ccccc1O,O,0,0,6.1,['6.1'],['combined_training_datasets_unique.sdf']
4262,N#CC(C(=O)[O-])C1CCCCC1,O,0,0,2.37,['2.37'],['combined_training_datasets_unique.sdf']
4263,N#CC(CC(=O)[O-])Cc1ccccc1,O,0,0,3.91,['3.91'],['combined_training_datasets_unique.sdf']
4264,N#CC(CC(=O)[O-])c1ccccc1,O,0,0,3.79,['3.79'],['combined_training_datasets_unique.sdf']
4265,N#CC(CCC(=O)[O-])c1ccccc1,O,0,0,4.4,['4.4'],['combined_training_datasets_unique.sdf']
4266,N#CC(CCCC(=O)[O-])c1ccccc1,O,0,0,4.64,['4.64'],['combined_training_datasets_unique.sdf']
4267,N#CC(CCCCC(=O)[O-])c1ccccc1,O,0,0,4.75,['4.75'],['combined_training_datasets_unique.sdf']
4268,N#CC(CC[NH+]1CCCCC1)(c1ccccc1)c1ccccc1,O,0,0,8.07,['8.07'],['combined_training_datasets_unique.sdf']
4269,N#CC(CC[NH+]1CCOCC1)(c1ccccc1)c1ccccc1,O,0,0,6.09,['6.09'],['combined_training_datasets_unique.sdf']
4270,N#CC(Cc1ccccc1)C(=O)[O-],O,0,0,2.24,['2.24'],['combined_training_datasets_unique.sdf']
4271,N#CC(N)c1ccccc1,O,0,0,4.4,['4.4'],['combined_training_datasets_unique.sdf']
4272,N#CC(c1ccc2c(c1)OCO2)N1CCCC1,O,0,0,4.3,['4.3'],['combined_training_datasets_unique.sdf']
4273,N#CC(c1ccc2c(c1)OCO2)N1CCCCC1,O,0,0,4.0,['4.0'],['combined_training_datasets_unique.sdf']
4274,N#CC1=C[NH+]2CCC1CC2,O,0,0,5.84,['5.84'],['combined_training_datasets_unique.sdf']
4275,N#CC1CC2CCN1CC2,O,0,0,5.85,['5.85'],['combined_training_datasets_unique.sdf']
4276,N#CC1CN2CCC1CC2,O,0,0,7.85,['7.85'],['combined_training_datasets_unique.sdf']
4277,N#CCC#N,O,0,0,11.19,['11.19'],['combined_training_datasets_unique.sdf']
4278,N#CCC(=O)[O-],O,0,0,2.46,['2.46'],['combined_training_datasets_unique.sdf']
4279,N#CCC(C(=O)[O-])c1ccccc1,O,0,0,3.44,['3.44'],['combined_training_datasets_unique.sdf']
4280,N#CCC(N)c1ccccc1,O,0,0,6.7,['6.7'],['combined_training_datasets_unique.sdf']
4281,N#CCCC(=O)[O-],O,0,0,3.98,['3.98'],['combined_training_datasets_unique.sdf']
4282,N#CCCC(C(=O)[O-])c1ccccc1,O,0,0,3.92,['3.92'],['combined_training_datasets_unique.sdf']
4283,N#CCCCOc1ccc(-c2ccc(-c3ccccc3Cl)n2Cc2cccc(N)n2)cc1,O,0,0,6.86,['6.86'],['combined_training_datasets_unique.sdf']
4284,N#CCCN,O,0,0,7.75,['7.75'],['combined_training_datasets_unique.sdf']
4285,N#CCCN(CCC#N)c1nn[n-]n1,O,0,0,4.85,['4.85'],['combined_training_datasets_unique.sdf']
4286,N#CCCNCCC#N,O,0,0,5.23,['5.23'],['combined_training_datasets_unique.sdf']
4287,N#CCCNN,O,0,0,5.91,['5.91'],['combined_training_datasets_unique.sdf']
4288,N#CCCNc1ccccc1,O,0,0,4.5,['4.5'],['combined_training_datasets_unique.sdf']
4289,N#CCC[NH2+]C(CC(N)=O)C(=O)[O-],O,0,0,6.46,['6.46'],['combined_training_datasets_unique.sdf']
4290,N#CCN,O,0,0,5.37,['5.37'],['combined_training_datasets_unique.sdf']
4291,N#CCN1CCCCC1,O,0,0,4.55,['4.55'],['combined_training_datasets_unique.sdf']
4292,N#CCN1CCOCC1,O,0,0,2.0,['2.0'],['combined_training_datasets_unique.sdf']
4293,N#CCc1ccc(C(=O)[O-])cc1,O,0,0,4.09,['4.09'],['combined_training_datasets_unique.sdf']
4294,N#CCc1cccnc1,O,0,0,3.78,['3.78'],['combined_training_datasets_unique.sdf']
4295,N#CNS(=O)(=O)c1ccc(N)cc1,O,0,0,2.92,['2.92'],['combined_training_datasets_unique.sdf']
4296,N#CSc1cc(C(=O)[O-])ccc1N,O,0,0,4.52,['4.52'],['combined_training_datasets_unique.sdf']
4297,N#CSc1ccc(O)cc1,O,0,0,8.57,['8.57'],['combined_training_datasets_unique.sdf']
4298,N#C[C@H](Cc1ccc(-c2ccccc2)cc1)NC(=O)C1([NH3+])CCOCC1,O,0,0,5.4,['5.4'],['combined_training_datasets_unique.sdf']
4299,N#C[C@H]1CCCC[C@@H]1C(=O)[O-],O,0,0,3.86,['3.86'],['combined_training_datasets_unique.sdf']
4300,N#Cc1c(-c2nc3cc(Cl)ccc3o2)c(=O)oc2cc(O)ccc12,O,0,0,6.0,['6.0'],['combined_training_datasets_unique.sdf']
4301,N#Cc1c(-c2nc3ccccc3o2)c(=O)oc2cc(O)ccc12,O,0,0,6.07,['6.07'],['combined_training_datasets_unique.sdf']
4302,N#Cc1c(-c2nc3ccccc3s2)c(=O)oc2cc(O)ccc12,O,0,0,6.38,['6.38'],['combined_training_datasets_unique.sdf']
4303,N#Cc1c(C2CC2)nc(SCc2cccc(F)c2F)[nH]c1=O,O,0,0,8.9,['8.9'],['combined_training_datasets_unique.sdf']
4304,N#Cc1c(C[NH+]2CCC(Br)CC2)no[n+]1[O-],O,0,0,4.01,['4.01'],['combined_training_datasets_unique.sdf']
4305,N#Cc1cc(-c2ccccc2)nnc1NCC[NH+]1CCOCC1,O,0,0,6.5,['6.5'],['combined_training_datasets_unique.sdf']
4306,N#Cc1cc(C(F)(F)F)ccc1N1CCOc2cc(S(=O)(=O)Nc3nccs3)ccc21,O,0,0,7.0,['7.0'],['combined_training_datasets_unique.sdf']
4307,N#Cc1cc(C(F)(F)F)ccc1N1CCOc2cc(S(=O)(=O)Nc3ncns3)ccc21,O,0,0,3.8,['3.8'],['combined_training_datasets_unique.sdf']
4308,N#Cc1cc(NS(=O)(=O)c2ccccc2C(F)(F)F)ccc1C(F)(F)F,O,0,0,5.1,['5.1'],['combined_training_datasets_unique.sdf']
4309,N#Cc1cc(NS(=O)(=O)c2ccccc2C(F)(F)F)ccc1Cl,O,0,0,5.8,['5.8'],['combined_training_datasets_unique.sdf']
4310,N#Cc1cc(S(=O)(=O)Nc2ccc(F)cn2)ccc1Oc1ccc(CO)c(Cl)c1,O,0,0,5.7,['5.7'],['combined_training_datasets_unique.sdf']
4311,N#Cc1cc2[nH]cc(C(=O)[O-])c2cc1-c1ccc(C2(O)CCC2)cc1,O,0,0,4.6,['4.6'],['combined_training_datasets_unique.sdf']
4312,N#Cc1ccc(-c2ccc(C[C@@H](C#N)NC(=O)C3([NH3+])CCCCC3)cc2)cc1,O,0,0,7.1,['7.1'],['combined_training_datasets_unique.sdf']
4313,N#Cc1ccc(-c2ccc(C[C@@H](C#N)NC(=O)C3([NH3+])CCOCC3)cc2)cc1,O,0,0,5.8,['5.8'],['combined_training_datasets_unique.sdf']
4314,N#Cc1ccc(-c2ccc(C[C@@H](C#N)NC(=O)[C@@H]3CCCC[NH2+]3)cc2)cc1,O,0,0,8.4,['8.4'],['combined_training_datasets_unique.sdf']
4315,N#Cc1ccc(-c2ccc(C[C@@H](C#N)NC(=O)[C@@H]3C[C@@H](O)CC[NH2+]3)cc2)cc1,O,0,0,7.6,['7.6'],['combined_training_datasets_unique.sdf']
4316,N#Cc1ccc(-c2nn[n-]n2)cc1,O,0,0,3.53,['3.53'],['combined_training_datasets_unique.sdf']
4317,N#Cc1ccc(C(=O)Nc2ccc(F)c([C@@]3(CF)[NH+]=C(N)OCC3(F)F)c2)nc1,O,0,0,5.1,['5.1'],['combined_training_datasets_unique.sdf']
4318,N#Cc1ccc(C(=O)Nc2ccc(F)c([C@@]3(CF)[NH+]=C(N)OC[C@@H]3F)c2)nc1,O,0,0,6.7,['6.7'],['combined_training_datasets_unique.sdf']
4319,N#Cc1ccc(C(=O)Nc2ccc(F)c([C@]3(C(F)F)CCOC(N)=[NH+]3)c2)nc1,O,0,0,7.3,['7.3'],['combined_training_datasets_unique.sdf']
4320,N#Cc1ccc(C(=O)Nc2ccc(F)c([C@]3(CF)C[C@@H](C(F)(F)F)OC(N)=[NH+]3)c2)nc1,O,0,0,6.3,['6.3'],['combined_training_datasets_unique.sdf']
4321,N#Cc1ccc(C(=O)[O-])cc1,O,0,0,3.53,['3.53'],['combined_training_datasets_unique.sdf']
4322,N#Cc1ccc(CC(C#N)C#N)cc1,O,0,0,10.96,['10.96'],['combined_training_datasets_unique.sdf']
4323,N#Cc1ccc(C[NH3+])cc1,O,0,0,8.72,['8.72'],['combined_training_datasets_unique.sdf']
4324,N#Cc1ccc(Cc2c3ccccc3nc3ccccc23)cc1,O,0,0,5.93,['5.93'],['combined_training_datasets_unique.sdf']
4325,N#Cc1ccc(N2CC[NH+](CCNC(=O)c3ccc(F)cc3)CC2)cc1,O,0,0,6.43,['6.43'],['combined_training_datasets_unique.sdf']
4326,N#Cc1ccc(NC(=O)c2ccc(S(=O)(=O)N3CCOCC3)cc2)c(C(=O)[O-])c1,O,0,0,2.56,['2.56'],['combined_training_datasets_unique.sdf']
4327,N#Cc1ccc(NS(=O)(=O)c2ccccc2)cc1,O,0,0,6.78,['6.78'],['combined_training_datasets_unique.sdf']
4328,N#Cc1ccc(NS(=O)(=O)c2ccccc2C(F)(F)F)cc1Cl,O,0,0,5.1,['5.1'],['combined_training_datasets_unique.sdf']
4329,N#Cc1ccc(Nc2c3ccccc3nc3ccccc23)cc1,O,0,0,5.93,['5.93'],['combined_training_datasets_unique.sdf']
4330,N#Cc1ccc(Nc2nc(N)nc(Cc3c(Cl)ccc(Cl)c3Cl)n2)cc1,O,0,0,2.8,['2.8'],['combined_training_datasets_unique.sdf']
4331,N#Cc1ccc(Nc2nc(N)nc(Cc3c(Cl)ccc4[nH]ccc34)n2)cc1,O,0,0,3.3,['3.3'],['combined_training_datasets_unique.sdf']
4332,N#Cc1ccc(Nc2nc(N)nc(Cc3c(Cl)cccc3Cl)n2)cc1,O,0,0,3.1,['3.1'],['combined_training_datasets_unique.sdf']
4333,N#Cc1ccc(O[C@H]2O[C@@H](C(=O)[O-])[C@H](O)[C@@H](O)[C@@H]2O)cc1,O,0,0,3.22,['3.22'],['combined_training_datasets_unique.sdf']
4334,N#Cc1ccc(Oc2ccc(S(=O)(=O)Nc3ccc(F)cn3)cc2C#N)cc1Cl,O,0,0,5.8,['5.8'],['combined_training_datasets_unique.sdf']
4335,N#Cc1ccc(S(=O)(=O)C2(F)CC[NH+](CCc3ccc(F)cc3F)CC2)cc1,O,0,0,6.4,['6.4'],['combined_training_datasets_unique.sdf']
4336,N#Cc1ccc(S(=O)(=O)NCc2ccccc2)cc1,O,0,0,10.35,['10.35'],['combined_training_datasets_unique.sdf']
4337,N#Cc1ccc(S(=O)(=O)Nc2cc3c(=O)[nH]ccc3cc2F)cc1,O,0,0,5.97,['5.97'],['combined_training_datasets_unique.sdf']
4338,N#Cc1ccc(S(=O)(=O)Nc2ccc3cc[nH]c(=O)c3c2)cc1,O,0,0,6.93,['6.93'],['combined_training_datasets_unique.sdf']
4339,N#Cc1ccc([O-])cc1,O,0,0,7.89,['7.89'],['combined_training_datasets_unique.sdf']
4340,N#Cc1ccc2c(c1)C([P+](c1ccccc1)(c1ccccc1)c1ccccc1)c1ccccc1-2,O,0,0,5.81,['5.81'],['combined_training_datasets_unique.sdf']
4341,N#Cc1ccc2c(c1)CCN2,O,0,0,2.8,['2.8'],['combined_training_datasets_unique.sdf']
4342,N#Cc1ccc2c(c1)N(CCC[NH+]1CCC(O)CC1)c1ccccc1S2,O,0,0,8.63,['8.63'],['combined_training_datasets_unique.sdf']
4343,N#Cc1cccc(-c2cccc(-c3nn[n-]n3)c2)c1,O,0,0,4.0,['4.0'],['combined_training_datasets_unique.sdf']
4344,N#Cc1cccc(-c2nn[n-]n2)c1,O,0,0,3.45,['3.45'],['combined_training_datasets_unique.sdf']
4345,N#Cc1cccc(C(=O)[O-])c1,O,0,0,3.6,['3.6'],['combined_training_datasets_unique.sdf']
4346,N#Cc1cccc(N)c1,O,0,0,2.83,['2.83'],['combined_training_datasets_unique.sdf']
4347,N#Cc1cccc(NS(=O)(=O)c2ccccc2)c1,O,0,0,7.15,['7.15'],['combined_training_datasets_unique.sdf']
4348,N#Cc1cccc(O)c1,O,0,0,8.63,['8.63'],['combined_training_datasets_unique.sdf']
4349,N#Cc1cccc(S(N)(=O)=O)c1,O,0,0,8.84,['8.84'],['combined_training_datasets_unique.sdf']
4350,N#Cc1ccccc1-c1nn[n-]n1,O,0,0,3.55,['3.55'],['combined_training_datasets_unique.sdf']
4351,N#Cc1ccccc1[O-],O,0,0,7.32,['7.32'],['combined_training_datasets_unique.sdf']
4352,N#Cc1cccnc1N1CC[NH+](CCNC(=O)c2ccc(F)cc2)CC1,O,0,0,6.4,['6.4'],['combined_training_datasets_unique.sdf']
4353,N#Cc1cn([C@@H]2O[C@H](CO)[C@@H](O)[C@@H]2O)c(=O)[nH]c1=O,O,0,0,6.8,['6.8'],['combined_training_datasets_unique.sdf']
4354,N#Cc1cn([C@H]2C[C@H](O)[C@@H](CO)O2)c(=O)[nH]c1=O,O,0,0,6.8,['6.8'],['combined_training_datasets_unique.sdf']