,Solute SMILES,Solvent SMILES,Solute CAS,Solute IUPAC,pKa (avg),pKa (all),Source
611,CC(C)C1=CC2=CC[C@@H]3[C@@](C)(C(=O)[O-])CCC[C@@]3(C)[C@@H]2CC1,O,0,0,6.4,['6.4'],['combined_training_datasets_unique.sdf']
612,CC(C)C1=NC(c2ccccc2)(c2cccc(-c3cncnc3)c2)[NH+]=C1N,O,0,0,5.2,['5.2'],['combined_training_datasets_unique.sdf']
613,CC(C)C1CC(CC(=O)[O-])[NH2+]C1C(=O)[O-],O,0,0,3.05,['3.05'],['combined_training_datasets_unique.sdf']
614,CC(C)C1NC(=S)NC1=O,O,0,0,8.7,['8.7'],['combined_training_datasets_unique.sdf']
615,CC(C)CC(=O)[O-],O,0,0,4.79,['4.79'],['combined_training_datasets_unique.sdf']
616,CC(C)CC(O)=CC(=O)C(F)(F)F,O,0,0,6.52,['6.52'],['combined_training_datasets_unique.sdf']
617,CC(C)CC([NH3+])C(N)=O,O,0,0,8.0,['8.0'],['combined_training_datasets_unique.sdf']
618,CC(C)CC1(C)[NH+]=C(N)N(Cc2cccc(Cl)c2)C1=O,O,0,0,7.2,['7.2'],['combined_training_datasets_unique.sdf']
619,CC(C)CC1CC([O-])=C(C(=O)Nc2ccc(C3CCCCC3)cc2)C(=O)N1,O,0,0,6.5,['6.5'],['combined_training_datasets_unique.sdf']
620,CC(C)CCC(=O)[O-],O,0,0,4.84,['4.84'],['combined_training_datasets_unique.sdf']
621,CC(C)CCC1=C([O-])C(O)C(CCC(C)C)(CCC(C)C)C1=O,O,0,0,6.3,['6.3'],['combined_training_datasets_unique.sdf']
622,CC(C)CCC1=C([O-])c2ccccc2C(=O)C1=O,O,0,0,5.13,['5.13'],['combined_training_datasets_unique.sdf']
623,CC(C)CCCC(C)[NH3+],O,0,0,10.28,['10.28'],['combined_training_datasets_unique.sdf']
624,CC(C)CCC[NH+](C)CCCNC(=O)CN=O,O,0,0,9.435,['9.435'],['combined_training_datasets_unique.sdf']
625,CC(C)CCN(C1=[NH+]CCN1)c1c(Br)cccc1Br,O,0,0,10.9,['10.9'],['combined_training_datasets_unique.sdf']
626,CC(C)CCOc1ccc2c(c1)[C@H]1OCCC[C@H]1[C@@H](C1CCOCC1)N2,O,0,0,3.8,['3.8'],['combined_training_datasets_unique.sdf']
627,CC(C)CCOc1ccccc1/C=C/C(=O)[O-],O,0,0,4.85,['4.85'],['combined_training_datasets_unique.sdf']
628,CC(C)CCOc1ccccc1/C=C\C(=O)[O-],O,0,0,4.38,['4.38'],['combined_training_datasets_unique.sdf']
629,CC(C)CCSC(=N)c1ccccc1,O,0,0,8.43,['8.43'],['combined_training_datasets_unique.sdf']
630,CC(C)CC[NH2+]CCC(C)C,O,0,0,10.9,['10.9'],['combined_training_datasets_unique.sdf']
631,CC(C)CC[NH3+],O,0,0,10.93,['10.93'],['combined_training_datasets_unique.sdf']
632,CC(C)CN(C(=O)c1cccc(Cl)c1Cl)[C@H]1CC[NH2+]C1,O,0,0,10.0,['10.0'],['combined_training_datasets_unique.sdf']
633,CC(C)CN(C)c1ccccc1,O,0,0,5.2,['5.2'],['combined_training_datasets_unique.sdf']
634,CC(C)CN(C1=[NH+]CCN1)c1c(Br)cccc1Br,O,0,0,11.02,['11.02'],['combined_training_datasets_unique.sdf']
635,CC(C)CN(CC(C)C)C(=S)S,O,0,0,3.4,['3.4'],['combined_training_datasets_unique.sdf']
636,CC(C)CNC(=O)CNC(=O)c1[nH]ccc(=O)c1[O-],O,0,0,6.2,['6.2'],['combined_training_datasets_unique.sdf']
637,CC(C)CNC(=O)[C@H](C)NC(=O)c1[nH]ccc(=O)c1[O-],O,0,0,6.0,['6.0'],['combined_training_datasets_unique.sdf']
638,CC(C)CNC(=O)[C@H](Cc1ccccc1)NC(=O)c1[nH]ccc(=O)c1[O-],O,0,0,6.0,['6.0'],['combined_training_datasets_unique.sdf']
639,CC(C)CNC(=O)[C@H]1C[C@@](F)(c2ccc(C[NH+]3CCCC3)c(F)c2)C1,O,0,0,9.2,['9.2'],['combined_training_datasets_unique.sdf']
640,CC(C)CNC(=O)c1cnc(Nc2cccc(Cl)c2)cc1C(C)C,O,0,0,6.02,['6.02'],['combined_training_datasets_unique.sdf']
641,CC(C)CNc1ccccc1,O,0,0,4.84,['4.84'],['combined_training_datasets_unique.sdf']
642,CC(C)COCC(CN(Cc1ccccc1)c1ccccc1)[NH+]1CCCC1,O,0,0,9.3,['9.3'],['combined_training_datasets_unique.sdf']
643,CC(C)COCC(O)C[NH2+]C(C)(C)C,O,0,0,9.73,['9.73'],['combined_training_datasets_unique.sdf']
644,CC(C)COc1ccc(C(=O)[O-])cc1,O,0,0,4.48,['4.48'],['combined_training_datasets_unique.sdf']
645,CC(C)COc1noc2c1C[NH2+]CC2,O,0,0,7.7,['7.7'],['combined_training_datasets_unique.sdf']
646,CC(C)CS(=O)[O-],O,0,0,2.75,['2.75'],['combined_training_datasets_unique.sdf']
647,CC(C)CSC(=N)c1ccccc1,O,0,0,8.22,['8.22'],['combined_training_datasets_unique.sdf']
648,CC(C)CSCC[NH3+],O,0,0,8.73,['8.73'],['combined_training_datasets_unique.sdf']
649,CC(C)C[C@@H](C(=O)NCC#N)c1cccc(-c2ccc(N3CC[NH2+]CC3)cc2)c1,O,0,0,8.77,['8.77'],['combined_training_datasets_unique.sdf']
650,CC(C)C[C@H](O)[C@H](O)[C@@H]([NH3+])CC1CCCCC1,O,0,0,9.3,['9.3'],['combined_training_datasets_unique.sdf']
651,CC(C)C[C@H]([NH3+])C(=O)NCCCS(=O)(=O)Oc1ccc(C(F)(F)F)cc1,O,0,0,8.9,['8.9'],['combined_training_datasets_unique.sdf']
652,CC(C)C[C@H]([NH3+])C(=O)NCCCS(=O)(=O)Oc1ccc(Cl)cc1,O,0,0,9.6,['9.6'],['combined_training_datasets_unique.sdf']
653,CC(C)C[C@H]([NH3+])C(N)=O,O,0,0,7.84,['7.84'],['combined_training_datasets_unique.sdf']
654,CC(C)C[NH+](C)C,O,0,0,9.91,['9.91'],['combined_training_datasets_unique.sdf']
655,CC(C)C[NH+](CC(C)O)CC(C)O,O,0,0,8.8,['8.8'],['combined_training_datasets_unique.sdf']
656,CC(C)C[NH+]1CCC(Oc2ccc3cc(C(=O)N4CCC(C)CC4)ccc3c2)CC1,O,0,0,9.8,['9.8'],['combined_training_datasets_unique.sdf']
657,CC(C)C[NH2+]C(C)C,O,0,0,10.55,['10.55'],['combined_training_datasets_unique.sdf']
658,CC(C)C[NH2+]CC(C)C,O,0,0,10.59,['10.59'],['combined_training_datasets_unique.sdf']
659,CC(C)C[NH2+][C@H](c1ccccc1)[C@H](O)c1ccccc1,O,0,0,11.34,['11.34'],['combined_training_datasets_unique.sdf']
660,CC(C)C[NH3+],O,0,0,10.36,['10.36'],['combined_training_datasets_unique.sdf']
661,CC(C)Cc1ccc(C(C)C(=O)[O-])cc1,O,0,0,5.205714,['5.205714'],['combined_training_datasets_unique.sdf']
662,CC(C)Cc1ccc(O)cc1,O,0,0,10.2,['10.2'],['combined_training_datasets_unique.sdf']
663,CC(C)Cc1ccc([C@H](C)C(=O)[O-])cc1,O,0,0,5.2,['5.2'],['combined_training_datasets_unique.sdf']
664,CC(C)Cc1ccccc1O,O,0,0,10.5,['10.5'],['combined_training_datasets_unique.sdf']
665,CC(C)N(/C=[NH+]\c1ccn(C2CC(F)C(CO)O2)c(=O)n1)C(C)C,O,0,0,5.13,['5.13'],['combined_training_datasets_unique.sdf']
666,CC(C)N(/C=[NH+]\c1ccn(C2CCC(CO)O2)c(=O)n1)C(C)C,O,0,0,5.28,['5.28'],['combined_training_datasets_unique.sdf']
667,CC(C)N(C1=[NH+]CCN1)c1c(Br)cccc1Br,O,0,0,11.2,['11.2'],['combined_training_datasets_unique.sdf']
668,CC(C)N(Cc1cnc[nH]1)c1ccc(Cl)cc1,O,0,0,3.5,['3.5'],['combined_training_datasets_unique.sdf']
669,CC(C)N(c1ccc(Oc2ccccc2C(F)(F)F)cc1C(=O)[O-])C(=O)[C@H]1CC[C@H](C)CC1,O,0,0,5.5,['5.5'],['combined_training_datasets_unique.sdf']
670,CC(C)N(c1ccccc1)C(C)C,O,0,0,6.19,['6.19'],['combined_training_datasets_unique.sdf']
671,CC(C)N=C1NS(=O)(=O)c2cc(Cl)ccc2S1,O,0,0,9.76,['9.76'],['combined_training_datasets_unique.sdf']
672,CC(C)N=C1Nc2c(Cl)cccc2S(=O)(=O)N1,O,0,0,9.11,['9.11'],['combined_training_datasets_unique.sdf']
673,CC(C)N=C1Nc2cc(Cl)ccc2S(=O)(=O)N1,O,0,0,9.35,['9.35'],['combined_training_datasets_unique.sdf']
674,CC(C)N=C1Nc2ccc(Br)cc2S(=O)(=O)N1,O,0,0,9.41,['9.41'],['combined_training_datasets_unique.sdf']
675,CC(C)N=C1Nc2ccc(Cl)cc2S(=O)(=O)N1,O,0,0,9.51,['9.51'],['combined_training_datasets_unique.sdf']
676,CC(C)N=C1Nc2ccc(F)cc2S(=O)(=O)N1,O,0,0,9.63,['9.63'],['combined_training_datasets_unique.sdf']
677,CC(C)N=C1Nc2ccc(I)cc2S(=O)(=O)N1,O,0,0,9.28,['9.28'],['combined_training_datasets_unique.sdf']
678,CC(C)N=NC1CC[NH+](C)CC1,O,0,0,8.9,['8.9'],['combined_training_datasets_unique.sdf']
679,CC(C)NC(=O)NCCc1ccc(OCC(O)C[NH2+]C(C)C)cc1,O,0,0,9.18,['9.18'],['combined_training_datasets_unique.sdf']
680,CC(C)NC(=O)c1ccc(-c2ccc(-c3ccccc3)n2Cc2cccc(N)n2)cc1,O,0,0,6.86,['6.86'],['combined_training_datasets_unique.sdf']
681,CC(C)NC(=S)S,O,0,0,3.1,['3.1'],['combined_training_datasets_unique.sdf']
682,CC(C)NCCC#N,O,0,0,8.0,['8.0'],['combined_training_datasets_unique.sdf']
683,CC(C)Nc1ccccc1,O,0,0,5.67,['5.67'],['combined_training_datasets_unique.sdf']
684,CC(C)Nc1ncc(-c2nc(-c3ccc4c(c3)CC[NH+](C(CO)CO)CC4)no2)cc1C#N,O,0,0,8.1,['8.1'],['combined_training_datasets_unique.sdf']
685,CC(C)Nc1ncnc2c1cnn2C,O,0,0,4.22,['4.22'],['combined_training_datasets_unique.sdf']
686,CC(C)OCC(O)C[NH2+]C(C)(C)C,O,0,0,9.9,['9.9'],['combined_training_datasets_unique.sdf']
687,CC(C)Oc1ccc(-c2nc(-c3ccc4c(c3)CC[NH+](C(CO)CO)C4)no2)cc1C#N,O,0,0,7.28,['7.28'],['combined_training_datasets_unique.sdf']
688,CC(C)Oc1ccc(-c2nc(-c3ccc4c(c3)CC[NH+](C(CO)CO)CC4)no2)cc1C#N,O,0,0,7.805,['7.805'],['combined_training_datasets_unique.sdf']
689,CC(C)Oc1ccc(-c2nc(-c3cccc4c3CC[NH+](C(CO)CO)C4)no2)cc1C#N,O,0,0,7.3,['7.3'],['combined_training_datasets_unique.sdf']
690,CC(C)Oc1ccc(-c2nc(-c3cccc4c3OCC[NH+](C(CO)CO)C4)no2)cc1C#N,O,0,0,6.03,['6.03'],['combined_training_datasets_unique.sdf']
691,CC(C)Oc1ccc(C(=O)[O-])cc1,O,0,0,4.57,['4.57'],['combined_training_datasets_unique.sdf']
692,CC(C)Oc1ccc(C(=O)c2ccc3n2CCC3C(=O)[O-])cc1,O,0,0,3.43,['3.43'],['combined_training_datasets_unique.sdf']
693,CC(C)Oc1cccc(C(=O)[O-])c1,O,0,0,4.15,['4.15'],['combined_training_datasets_unique.sdf']
694,CC(C)Oc1cccc2c1NC(=[NH+]CC(F)F)NC2C,O,0,0,10.2,['10.2'],['combined_training_datasets_unique.sdf']
695,CC(C)Oc1ccccc1C(=O)[O-],O,0,0,4.24,['4.24'],['combined_training_datasets_unique.sdf']
696,CC(C)Oc1ncc(-c2nc(-c3ccc4c(c3)CC[NH2+]CC4)no2)cc1C#N,O,0,0,9.69,['9.69'],['combined_training_datasets_unique.sdf']
697,CC(C)Oc1noc2c1C[NH2+]CC2,O,0,0,7.5,['7.5'],['combined_training_datasets_unique.sdf']
698,CC(C)S(=O)(=O)n1c(N)nc2ccc(/C(=C/C(N)=O)c3cc(F)ccc3F)cc21,O,0,0,3.4,['3.4'],['combined_training_datasets_unique.sdf']
699,CC(C)S(=O)(=O)n1c(N)nc2ccc(/C(=C/C(N)=O)c3cccc(F)c3)cc21,O,0,0,3.41,['3.41'],['combined_training_datasets_unique.sdf']
700,CC(C)S(=O)[O-],O,0,0,2.3,['2.3'],['combined_training_datasets_unique.sdf']
701,CC(C)SC(=N)c1ccccc1,O,0,0,8.04,['8.04'],['combined_training_datasets_unique.sdf']
702,CC(C)SC(C)C(=O)[O-],O,0,0,3.78,['3.78'],['combined_training_datasets_unique.sdf']
703,CC(C)SCC(=O)[O-],O,0,0,3.72,['3.72'],['combined_training_datasets_unique.sdf']
704,CC(C)SCC[NH3+],O,0,0,9.23,['9.23'],['combined_training_datasets_unique.sdf']
705,CC(C)[C@@H]1C(=O)N(S(C)(=O)=O)[C@@H]2CN(C(=O)/C=C/C[NH+]3CCCCC3)C[C@@H]12,O,0,0,8.44,['8.44'],['combined_training_datasets_unique.sdf']
706,CC(C)[C@@H]1CC[C@@H](C)C[C@@H]1[NH3+],O,0,0,10.52,['10.52'],['combined_training_datasets_unique.sdf']
707,CC(C)[C@@]12C[NH2+][C@@H](C(=O)[O-])[C@@H]1CC(=O)O2,O,0,0,7.8,['7.8'],['combined_training_datasets_unique.sdf']
708,CC(C)[C@H](C(=O)[O-])N1C[C@H](NC(=O)Cc2ccccc2)C1=O,O,0,0,3.48,['3.48'],['combined_training_datasets_unique.sdf']
709,CC(C)[C@H]1CC[C@H](C(=O)N[C@H](Cc2ccccc2)C(=O)[O-])CC1,O,0,0,3.1,['3.1'],['combined_training_datasets_unique.sdf']
710,CC(C)[C@H]1CC[C@H](C)C[C@@H]1[NH3+],O,0,0,10.63,['10.63'],['combined_training_datasets_unique.sdf']
711,CC(C)[NH+](C(C)C)C(C)C,O,0,0,11.86,['11.86'],['combined_training_datasets_unique.sdf']
712,CC(C)[NH+](C)C,O,0,0,10.3,['10.3'],['combined_training_datasets_unique.sdf']
713,CC(C)[NH+](CC1CO1)CC1CO1,O,0,0,7.07,['7.07'],['combined_training_datasets_unique.sdf']
714,CC(C)[NH+](CCCl)CCCl,O,0,0,7.0,['7.0'],['combined_training_datasets_unique.sdf']
715,CC(C)[NH+](CCNC(=O)[C@H]1C[C@@H]1c1ccccc1)C(C)C,O,0,0,9.7,['9.7'],['combined_training_datasets_unique.sdf']
716,CC(C)[NH+](CCO)C(C)C,O,0,0,10.08,['10.08'],['combined_training_datasets_unique.sdf']
717,CC(C)[NH+](CCc1ccccc1)CCc1ccccc1,O,0,0,10.02,['10.02'],['combined_training_datasets_unique.sdf']
718,CC(C)[NH+](Cc1no[n+]([O-])c1C#N)C(C)C,O,0,0,5.35,['5.35'],['combined_training_datasets_unique.sdf']
719,CC(C)[NH+]1C2CCCC21,O,0,0,8.31,['8.31'],['combined_training_datasets_unique.sdf']
720,CC(C)[NH+]1CCC(C(=O)Nc2cccc(OCc3ccc(F)cc3)c2)CC1,O,0,0,9.4,['9.4'],['combined_training_datasets_unique.sdf']
721,CC(C)[NH+]1CCC(N(C(=O)Cc2ccccc2)c2ccc(Cl)cc2)CC1,O,0,0,8.7,['8.7'],['combined_training_datasets_unique.sdf']
722,CC(C)[NH+]1CCC(Oc2cc3[nH]c(C(=O)N4CCOCC4)cc3cc2F)CC1,O,0,0,9.5,['9.5'],['combined_training_datasets_unique.sdf']
723,CC(C)[NH+]1CCC(Oc2ccc(C3(C(N)=O)CCOCC3)cc2)CC1,O,0,0,9.78,['9.78'],['combined_training_datasets_unique.sdf']
724,CC(C)[NH+]1CCC(Oc2ccc3[nH]c(C(=O)N4CCC(F)(F)CC4)cc3c2)CC1,O,0,0,9.7,['9.7'],['combined_training_datasets_unique.sdf']
725,CC(C)[NH+]1CCC(Oc2ccc3[nH]c(C(=O)N4CCC(O)C4)cc3c2)CC1,O,0,0,9.8,['9.8'],['combined_training_datasets_unique.sdf']
726,CC(C)[NH+]1CCC(Oc2ccc3[nH]c(C(=O)N4CCCC(F)(F)C4)cc3c2)CC1,O,0,0,10.0,['10.0'],['combined_training_datasets_unique.sdf']
727,CC(C)[NH+]1CCC(Oc2ccc3[nH]c(C(=O)N4CCCCCC4)cc3c2)CC1,O,0,0,9.7,['9.7'],['combined_training_datasets_unique.sdf']
728,CC(C)[NH+]1CCC(Oc2ccc3[nH]c(C(=O)N4CCOCC4)cc3c2)CC1,O,0,0,10.0,['10.0'],['combined_training_datasets_unique.sdf']
729,CC(C)[NH+]1CCC(Oc2ccc3c(c2)cc(C(=O)N2CCC(F)(F)CC2)n3CC#N)CC1,O,0,0,9.8,['9.8'],['combined_training_datasets_unique.sdf']
730,CC(C)[NH+]1CCC(Oc2ccc3c(c2)cc(C(=O)N2CCC(F)(F)CC2)n3CC(F)(F)F)CC1,O,0,0,9.7,['9.7'],['combined_training_datasets_unique.sdf']
731,CC(C)[NH+]1CCC(Oc2ccc3c(c2)cc(C(=O)N2CCC(F)(F)CC2)n3S(C)(=O)=O)CC1,O,0,0,9.6,['9.6'],['combined_training_datasets_unique.sdf']
732,CC(C)[NH+]1CCC(Oc2ccc3c(c2)cc(C(=O)N2CCOCC2)n3CC(F)(F)F)CC1,O,0,0,9.7,['9.7'],['combined_training_datasets_unique.sdf']
733,CC(C)[NH+]1CCC(Oc2ccc3c(c2)cc(C(=O)N2CCS(=O)(=O)CC2)n3CC(F)(F)F)CC1,O,0,0,9.6,['9.6'],['combined_training_datasets_unique.sdf']
734,CC(C)[NH+]1CCC(Oc2ccc3cc(C(=O)N4CCC(CO)CC4)ccc3c2)CC1,O,0,0,9.6,['9.6'],['combined_training_datasets_unique.sdf']
735,CC(C)[NH+]1CCC(Oc2ccc3cc(C(=O)N4CCOCC4)[nH]c3c2)CC1,O,0,0,9.7,['9.7'],['combined_training_datasets_unique.sdf']
736,CC(C)[NH+]1CCC(Oc2ccc3cc(C(=O)N4CCOCC4)ccc3c2)CC1,O,0,0,9.3,['9.3'],['combined_training_datasets_unique.sdf']
737,CC(C)[NH+]1CCC(Oc2ccc3nc(C(=O)N4CCC4)ccc3c2)CC1,O,0,0,9.5,['9.5'],['combined_training_datasets_unique.sdf']
738,CC(C)[NH+]1CCC(Oc2ccc3nc(C(=O)N4CCC[C@H]4C#N)ccc3c2)CC1,O,0,0,9.5,['9.5'],['combined_training_datasets_unique.sdf']
739,CC(C)[NH+]1CCC(Oc2ccc3nc(C(=O)N4CCOCC4)ccc3c2)CC1,O,0,0,9.5,['9.5'],['combined_training_datasets_unique.sdf']
740,CC(C)[NH+]1CCCC1,O,0,0,11.22,['11.22'],['combined_training_datasets_unique.sdf']
741,CC(C)[NH+]1CCCCC1,O,0,0,10.96,['10.96'],['combined_training_datasets_unique.sdf']
742,CC(C)[NH+]1[C@H]2CCC(Oc3ccc4nc(C(=O)N5CCOCC5)ccc4c3)C[C@@H]1C2,O,0,0,8.97,['8.97'],['combined_training_datasets_unique.sdf']
743,CC(C)[NH2+]C(C)C,O,0,0,11.04,['11.04'],['combined_training_datasets_unique.sdf']
744,CC(C)[NH2+]CC(O)COc1ccc(CC(N)=O)cc1,O,0,0,9.555,['9.555'],['combined_training_datasets_unique.sdf']
745,CC(C)[NH2+]CC(O)COc1ccc(CCOCC2CC2)cc1,O,0,0,9.305,['9.305'],['combined_training_datasets_unique.sdf']
746,CC(C)[NH2+]CC(O)COc1ccc(COCCOC(C)C)cc1,O,0,0,9.446667,['9.446667'],['combined_training_datasets_unique.sdf']
747,CC(C)[NH2+]CC(O)COc1cccc2[nH]c3ccccc3c12,O,0,0,9.52,['9.52'],['combined_training_datasets_unique.sdf']
748,CC(C)[NH2+]CC(O)COc1cccc2[nH]ccc12,O,0,0,9.395,['9.395'],['combined_training_datasets_unique.sdf']
749,CC(C)[NH2+]CC(O)COc1cccc2ccccc12,O,0,0,9.518824,['9.518824'],['combined_training_datasets_unique.sdf']
750,CC(C)[NH2+]CC(O)COc1ccccc1,O,0,0,9.45,['9.45'],['combined_training_datasets_unique.sdf']
751,CC(C)[NH2+]CC(O)c1cccc(F)c1,O,0,0,9.48,['9.48'],['combined_training_datasets_unique.sdf']
752,CC(C)[NH2+]C[C@H](O)COc1ccc(CC(N)=O)cc1,O,0,0,9.57,['9.57'],['combined_training_datasets_unique.sdf']
753,CC(C)[NH2+]C[C@H](O)COc1cccc2ccccc12,O,0,0,9.5,['9.5'],['combined_training_datasets_unique.sdf']
754,CC(C)[NH2+][C@H](c1ccccc1)[C@H](O)c1ccccc1,O,0,0,11.79,['11.79'],['combined_training_datasets_unique.sdf']
755,CC(C)[NH3+],O,0,0,10.64,['10.64'],['combined_training_datasets_unique.sdf']
756,CC(C)c1cc(=O)c([O-])ccc1Br,O,0,0,6.53,['6.53'],['combined_training_datasets_unique.sdf']
757,CC(C)c1cc(Nc2ccc(C#N)c(Cl)c2)ncc1C(=O)NCC1CCOCC1,O,0,0,6.02,['6.02'],['combined_training_datasets_unique.sdf']
758,CC(C)c1cc(Nc2ccc(Cl)cc2Cl)ncc1C(=O)NCC1CCOCC1,O,0,0,6.02,['6.02'],['combined_training_datasets_unique.sdf']
759,CC(C)c1cc(Nc2cccc(Br)c2)ncc1C(=O)NCC1CCOCC1,O,0,0,6.02,['6.02'],['combined_training_datasets_unique.sdf']
760,CC(C)c1cc(Nc2cccc(C#N)c2)ncc1C(=O)NCC1CCOCC1,O,0,0,6.02,['6.02'],['combined_training_datasets_unique.sdf']
761,CC(C)c1cc(Nc2cccc(C(F)(F)F)c2F)ncc1C(=O)NCC1CCOCC1,O,0,0,6.02,['6.02'],['combined_training_datasets_unique.sdf']
762,CC(C)c1cc(Nc2cccc(Cl)c2)ncc1C(=O)NC1CCOCC1,O,0,0,6.02,['6.02'],['combined_training_datasets_unique.sdf']
763,CC(C)c1cc(Nc2cccc(Cl)c2)ncc1C(=O)NCC(C)(C)C,O,0,0,6.02,['6.02'],['combined_training_datasets_unique.sdf']
764,CC(C)c1cc(Nc2cccc(Cl)c2)ncc1C(=O)NCC1CCCC1,O,0,0,6.02,['6.02'],['combined_training_datasets_unique.sdf']
765,CC(C)c1cc(Nc2cccc(Cl)c2)ncc1C(=O)NCC1CCOCC1,O,0,0,6.02,['6.02'],['combined_training_datasets_unique.sdf']
766,CC(C)c1cc(Nc2cccc(Cl)c2)ncc1C(=O)NCc1ccc(F)cc1,O,0,0,6.02,['6.02'],['combined_training_datasets_unique.sdf']
767,CC(C)c1ccc(Br)c([O-])c(=O)c1,O,0,0,6.28,['6.28'],['combined_training_datasets_unique.sdf']
768,CC(C)c1ccc(C(=O)/C=C/C(=O)[O-])cc1,O,0,0,3.4,['3.4'],['combined_training_datasets_unique.sdf']
769,CC(C)c1ccc(C(=O)[O-])cc1,O,0,0,4.31,['4.31'],['combined_training_datasets_unique.sdf']
770,CC(C)c1ccc(CCC[NH+](C)C)cc1,O,0,0,10.49,['10.49'],['combined_training_datasets_unique.sdf']
771,CC(C)c1ccc(O)cc1,O,0,0,10.1,['10.1'],['combined_training_datasets_unique.sdf']
772,CC(C)c1ccc2c(c1)CC[C@@H]1[C@]2(C)CCC[C@@]1(C)C(=O)[O-],O,0,0,5.7,['5.7'],['combined_training_datasets_unique.sdf']
773,CC(C)c1cccc(=O)c([O-])c1Br,O,0,0,6.68,['6.68'],['combined_training_datasets_unique.sdf']
774,CC(C)c1cccc(C(=O)[O-])c1,O,0,0,4.27,['4.27'],['combined_training_datasets_unique.sdf']
775,CC(C)c1cccc(C(C)C)c1NC1=[NH+]CCN1,O,0,0,10.65,['10.65'],['combined_training_datasets_unique.sdf']
776,CC(C)c1cccc2ccc(O)cc12,O,0,0,9.52,['9.52'],['combined_training_datasets_unique.sdf']
777,CC(C)c1ccccc1C(=O)[O-],O,0,0,3.64,['3.64'],['combined_training_datasets_unique.sdf']
778,CC(C)c1ccccc1N,O,0,0,4.42,['4.42'],['combined_training_datasets_unique.sdf']
779,CC(C)c1ccccc1Nc1c2ccccc2nc2ccccc12,O,0,0,7.64,['7.64'],['combined_training_datasets_unique.sdf']
780,CC(C)c1ccccc1O,O,0,0,10.4,['10.4'],['combined_training_datasets_unique.sdf']
781,CC(C)c1ccccn1,O,0,0,5.83,['5.83'],['combined_training_datasets_unique.sdf']
782,CC(C)c1cccnc1,O,0,0,5.72,['5.72'],['combined_training_datasets_unique.sdf']
783,CC(C)c1ccncc1,O,0,0,6.02,['6.02'],['combined_training_datasets_unique.sdf']
784,CC(C)c1csc(C(=O)[O-])c1,O,0,0,3.64,['3.64'],['combined_training_datasets_unique.sdf']
785,CC(C)c1nc2ccccc2[nH]1,O,0,0,6.23,['6.23'],['combined_training_datasets_unique.sdf']
786,CC(C)c1nn[n-]n1,O,0,0,5.55,['5.55'],['combined_training_datasets_unique.sdf']
787,CC(C)c1nnc2ccc(-c3ocnc3-c3ccc(F)cc3)cn12,O,0,0,2.86,['2.86'],['combined_training_datasets_unique.sdf']
788,CC(C)n1c(/C=C/C(O)CC(O)CC(=O)[O-])c(-c2ccc(F)cc2)c2ccccc21,O,0,0,4.405,['4.405'],['combined_training_datasets_unique.sdf']
789,CC(C)n1c(/C=C/[C@@H](O)C[C@@H](O)CC(=O)[O-])c(-c2ccc(F)cc2)c2ccccc21,O,0,0,4.31,['4.31'],['combined_training_datasets_unique.sdf']
790,CC(C)n1c(C(=O)N2CCC(F)(F)CC2)cc2cc(OC3CC[NH+](C(C)C)CC3)ccc21,O,0,0,9.9,['9.9'],['combined_training_datasets_unique.sdf']
791,CC(C)n1c(N)nc2ccc(/C(=C\C(N)=O)c3cccc(F)c3F)cc21,O,0,0,6.7,['6.7'],['combined_training_datasets_unique.sdf']
792,CC(C)n1cnc2ccccc21,O,0,0,5.74,['5.74'],['combined_training_datasets_unique.sdf']
793,CC(C1CC1C(=O)[O-])C1CC[C@H]2[C@@H]3[C@@H](O)CC4C[C@H](O)CCC4(C)[C@H]3CCC12C,O,0,0,5.01,['5.01'],['combined_training_datasets_unique.sdf']
794,CC(C1CC[C@H]2[C@@H]3[C@@H](O)CC4C[C@H](O)CCC4(C)[C@H]3CCC12C)[C@@H]1C[C@@H]1C(=O)[O-],O,0,0,5.04,['5.04'],['combined_training_datasets_unique.sdf']
795,CC(C1CC[C@H]2[C@@H]3[C@@H](O)CC4C[C@H](O)CCC4(C)[C@H]3CCC12C)[C@H]1C[C@H]1C(=O)[O-],O,0,0,5.05,['5.05'],['combined_training_datasets_unique.sdf']
796,CC(C=C(c1cccs1)c1cccs1)[NH+](C)C,O,0,0,8.95,['8.95'],['combined_training_datasets_unique.sdf']
797,CC(C=C(c1cccs1)c1cccs1)[NH+]1CCCCC1,O,0,0,8.46,['8.46'],['combined_training_datasets_unique.sdf']
798,CC(C=C(c1cccs1)c1cccs1)[NH+]1CCCCC1C,O,0,0,7.46,['7.46'],['combined_training_datasets_unique.sdf']
799,CC(C=C(c1cccs1)c1cccs1)[NH+]1CCCCCC1,O,0,0,7.96,['7.96'],['combined_training_datasets_unique.sdf']
800,CC(C=C(c1cccs1)c1cccs1)[NH+]1CCCCCCC1,O,0,0,7.52,['7.52'],['combined_training_datasets_unique.sdf']
801,CC(CC(=O)[O-])C(N)=O,O,0,0,4.59,['4.59'],['combined_training_datasets_unique.sdf']
802,CC(CC(C#N)(c1ccccc1)c1ccccc1)[NH+]1CCCCC1,O,0,0,7.73,['7.73'],['combined_training_datasets_unique.sdf']
803,CC(CC(C#N)(c1ccccc1)c1ccccc1)[NH+]1CCOCC1,O,0,0,6.1,['6.1'],['combined_training_datasets_unique.sdf']