,Solute SMILES,Solvent SMILES,Solute CAS,Solute IUPAC,pKa (avg),pKa (all),Source
2401,COc1cc(N)c(Cl)cc1C(=O)NC1CC[NH+](Cc2ccccc2)CC1,O,0,0,8.59,['8.59'],['combined_training_datasets_unique.sdf']
2402,COc1cc(N)c(Cl)cc1C(=O)NC1CC[NH+]2C(C)CCCC2C1,O,0,0,9.2,['9.2'],['combined_training_datasets_unique.sdf']
2403,COc1cc(N)c(Cl)cc1C(=O)NC1CC[NH+]2CCOCC2C1,O,0,0,6.3,['6.3'],['combined_training_datasets_unique.sdf']
2404,COc1cc(NCc2ccccc2)nc(N)n1,O,0,0,5.76,['5.76'],['combined_training_datasets_unique.sdf']
2405,COc1cc(NS(=O)(=O)C(F)(F)F)cc(OC)c1Oc1ccc(C#N)c(Cl)c1,O,0,0,4.5,['4.5'],['combined_training_datasets_unique.sdf']
2406,COc1cc(NS(=O)(=O)c2ccc(N)cc2)nc(OC)n1,O,0,0,5.98,['5.98'],['combined_training_datasets_unique.sdf']
2407,COc1cc(NS(C)(=O)=O)cc(OC)c1Oc1ccc(C#N)c(Cl)c1,O,0,0,8.5,['8.5'],['combined_training_datasets_unique.sdf']
2408,COc1cc(OC)c(-c2ccc(C#CCO)s2)cc1C(=O)NS(=O)(=O)c1ccccc1,O,0,0,4.8,['4.8'],['combined_training_datasets_unique.sdf']
2409,COc1cc(OC)c(/C=C/S(=O)(=O)Cc2ccc(OC)c(N)n2)c(OC)c1,O,0,0,4.67,['4.67'],['combined_training_datasets_unique.sdf']
2410,COc1cc(OC)c(/C=C/S(=O)(=O)Cc2ccc(OC)c(NS(C)(=O)=O)n2)c(OC)c1,O,0,0,7.28,['7.28'],['combined_training_datasets_unique.sdf']
2411,COc1cc(OC)c(/C=C/S(=O)(=O)Cc2cnc(OC)c(N)c2)c(OC)c1,O,0,0,2.39,['2.39'],['combined_training_datasets_unique.sdf']
2412,COc1cc(OC)c(/C=C/S(=O)(=O)Cc2cnc(OC)c(NS(C)(=O)=O)c2)c(OC)c1,O,0,0,7.66,['7.66'],['combined_training_datasets_unique.sdf']
2413,COc1cc(OC)c(NC2=[NH+]CCN2)cc1Cl,O,0,0,10.15,['10.15'],['combined_training_datasets_unique.sdf']
2414,COc1cc(OC)c(OC)c(C(=O)N[C@@H]2C[C@@H]3CC[C@H](C2)[NH+]3Cc2ccccc2)c1,O,0,0,8.84,['8.84'],['combined_training_datasets_unique.sdf']
2415,COc1cc(OC)c2c(c1Cl)O[C@]1(C(=O)C=C([O-])C[C@@H]1C)C2=O,O,0,0,4.49,['4.49'],['combined_training_datasets_unique.sdf']
2416,COc1cc(OC)nc([N-]S(=O)(=O)c2ccc(N)cc2)n1,O,0,0,7.12,['7.12'],['combined_training_datasets_unique.sdf']
2417,COc1cc(S(C)(=O)=O)cc(C(=O)N[C@H]2C[C@@H]3CC[C@H](C2)[NH+]3Cc2ccccc2)c1OC,O,0,0,8.92,['8.92'],['combined_training_datasets_unique.sdf']
2418,COc1cc(S(C)=O)ccc1-c1cn2ccncc2[nH+]1,O,0,0,2.88,['2.88'],['combined_training_datasets_unique.sdf']
2419,COc1cc(S(C)=O)ccc1-c1nc2nccnc2[nH]1,O,0,0,8.94,['8.94'],['combined_training_datasets_unique.sdf']
2420,COc1cc(S(C)=O)ccc1-c1nc2ncncc2[nH]1,O,0,0,8.91,['8.91'],['combined_training_datasets_unique.sdf']
2421,COc1cc([C@H]2CN=C(c3ccc4c(ccn4C)c3)O2)cc(OC)c1OC,O,0,0,5.0,['5.0'],['combined_training_datasets_unique.sdf']
2422,COc1cc2[nH+]c(N3CCCN(C(=O)N4CCOCC4)CC3)cc(N)c2c(-c2ccc(F)cc2)c1OC,O,0,0,8.5,['8.5'],['combined_training_datasets_unique.sdf']
2423,COc1cc2[nH+]c(N3CCCN(C(=O)N4CCOCC4)CC3)cc(N)c2c(-c2ccccc2)c1OC,O,0,0,8.5,['8.5'],['combined_training_datasets_unique.sdf']
2424,COc1cc2[nH+]c(N3CCCN(C(=O)N4CCOCC4)CC3)cc(N)c2c(-c2ncco2)c1OC,O,0,0,7.5,['7.5'],['combined_training_datasets_unique.sdf']
2425,COc1cc2c(Nc3c(Cl)ccc4c3OCO4)ncnc2cc1OCc1ccnc(C#N)c1,O,0,0,4.9,['4.9'],['combined_training_datasets_unique.sdf']
2426,COc1cc2c(Nc3ccc(Br)cc3F)ncnc2cc1OCCn1ccnn1,O,0,0,5.3,['5.3'],['combined_training_datasets_unique.sdf']
2427,COc1cc2c(cc1O)CC[n+]1cc3c(OC)c(OC)ccc3cc1-2,O,0,0,9.6,['9.6'],['combined_training_datasets_unique.sdf']
2428,COc1cc2c(cc1OC)-c1c(-c3cnc(C(=O)N(C)C(C)(C)C)s3)ncn1CC2,O,0,0,4.0,['4.0'],['combined_training_datasets_unique.sdf']
2429,COc1cc2c(cc1OC)-c1c(-c3cncs3)nc(C)n1CC2,O,0,0,5.0,['5.0'],['combined_training_datasets_unique.sdf']
2430,COc1cc2c(cc1OC)-c1c(-c3cncs3)ncn1CC2,O,0,0,4.3,['4.3'],['combined_training_datasets_unique.sdf']
2431,COc1cc2c(cc1OC)C(=O)C(CC1CC[NH+](Cc3ccccc3)CC1)C2,O,0,0,9.08,['9.08'],['combined_training_datasets_unique.sdf']
2432,COc1cc2c(cc1OC)C(=O)Cc1ccc3c(c1C[NH+](C)CC2)OCO3,O,0,0,8.09,['8.09'],['combined_training_datasets_unique.sdf']
2433,COc1cc2c(cc1OC)C13CC[NH+]4C1CC1C(=CCOC5CC(=O)N2C3C51)[C@@H]4S(=O)(=O)[O-],O,0,0,3.12,['3.12'],['combined_training_datasets_unique.sdf']
2434,COc1cc2c(cc1OC)NC(N)=[NH+]C2,O,0,0,11.1,['11.1'],['combined_training_datasets_unique.sdf']
2435,COc1cc2c(cc1OC)NCC2,O,0,0,7.3,['7.3'],['combined_training_datasets_unique.sdf']
2436,COc1cc2c(cc1OC)[C@]13CC[NH+]4CC5=CCO[C@@H]6CC(=O)N2[C@@H]1[C@@H]6[C@@H]5C[C@@H]43,O,0,0,5.86,['5.86'],['combined_training_datasets_unique.sdf']
2437,COc1cc2c(cc1OC)[C@]13CC[NH+]4CC5=CCO[C@H]6CC(=O)N2[C@H]1C6[C@@]5(S(=O)(=O)[O-])C[C@H]43,O,0,0,7.45,['7.45'],['combined_training_datasets_unique.sdf']
2438,COc1cc2ccc(=O)oc2cc1O,O,0,0,6.5,['6.5'],['combined_training_datasets_unique.sdf']
2439,COc1cc2ccccc2cc1C(=O)[O-],O,0,0,3.82,['3.82'],['combined_training_datasets_unique.sdf']
2440,COc1cc2nc(N(C)CCCNC(=O)C3CCCO3)nc(N)c2cc1OC,O,0,0,8.1,['8.1'],['combined_training_datasets_unique.sdf']
2441,COc1cc2nc(N3CCN(C(=O)C4CCCO4)CC3)nc(N)c2cc1OC,O,0,0,7.1,['7.1'],['combined_training_datasets_unique.sdf']
2442,COc1cc2nc(N3CCN(C(=O)C4COc5ccccc5O4)CC3)nc(N)c2cc1OC,O,0,0,6.7,['6.7'],['combined_training_datasets_unique.sdf']
2443,COc1cc2nc(N3CCN(C(=O)c4ccco4)CC3)nc(N)c2cc1OC,O,0,0,6.625,['6.625'],['combined_training_datasets_unique.sdf']
2444,COc1ccc(-c2c([O-])c2=O)cc1,O,0,0,2.33,['2.33'],['combined_training_datasets_unique.sdf']
2445,COc1ccc(-c2cc(C(=O)[O-])[nH]n2)cc1,O,0,0,3.31,['3.31'],['combined_training_datasets_unique.sdf']
2446,COc1ccc(-c2cc3c(C(=O)[O-])c[nH]c3cc2Cl)c(OC)n1,O,0,0,4.8,['4.8'],['combined_training_datasets_unique.sdf']
2447,COc1ccc(-c2cc3c(C(=O)[O-])c[nH]c3cc2Cl)cn1,O,0,0,2.4,['2.4'],['combined_training_datasets_unique.sdf']
2448,COc1ccc(-c2cc3ccncc3[nH]2)c(OC)c1,O,0,0,8.29,['8.29'],['combined_training_datasets_unique.sdf']
2449,COc1ccc(-c2cc3cnccc3[nH]2)c(OC)c1,O,0,0,8.49,['8.49'],['combined_training_datasets_unique.sdf']
2450,COc1ccc(-c2ccc(-c3ccccc3Cl)n2Cc2cccc(N)n2)cc1,O,0,0,6.86,['6.86'],['combined_training_datasets_unique.sdf']
2451,COc1ccc(-c2ccc(/C=C3/SC(=S)N(CC(=O)[O-])C3=O)o2)cc1,O,0,0,3.62,['3.62'],['combined_training_datasets_unique.sdf']
2452,COc1ccc(-c2ccc(CCC[NH+](C)C)cc2)cc1,O,0,0,9.85,['9.85'],['combined_training_datasets_unique.sdf']
2453,COc1ccc(-c2cn3ccnc3[nH]2)c(OC)c1,O,0,0,6.76,['6.76'],['combined_training_datasets_unique.sdf']
2454,COc1ccc(-c2cnc(-c3ccc(N)cc3)o2)cc1,O,0,0,3.22,['3.22'],['combined_training_datasets_unique.sdf']
2455,COc1ccc(-c2cncn2-c2cc(OC)c(OC)c(OC)c2)cc1,O,0,0,6.82,['6.82'],['combined_training_datasets_unique.sdf']
2456,COc1ccc(-c2nc3cnccc3n2C)c(OC)c1,O,0,0,6.16,['6.16'],['combined_training_datasets_unique.sdf']
2457,COc1ccc(-c2nc3nc(SC)nnc3[nH]2)c(OC)c1,O,0,0,7.69,['7.69'],['combined_training_datasets_unique.sdf']
2458,COc1ccc(-c2nc3ncncc3[nH]2)c(OC)c1,O,0,0,9.92,['9.92'],['combined_training_datasets_unique.sdf']
2459,COc1ccc(-c2ncc(-c3ccc(N)cc3)o2)cc1,O,0,0,3.71,['3.71'],['combined_training_datasets_unique.sdf']
2460,COc1ccc(-c2nccn2-c2cc(OC)c(OC)c(OC)c2)cc1F,O,0,0,6.63,['6.63'],['combined_training_datasets_unique.sdf']
2461,COc1ccc(-c2nn[n-]n2)cc1,O,0,0,4.23,['4.23'],['combined_training_datasets_unique.sdf']
2462,COc1ccc(-c2nnc(C(=O)N3CC(Oc4ccc(CN5CC[NH+](C)CC5)c(F)c4)C3)o2)cc1,O,0,0,8.4,['8.4'],['combined_training_datasets_unique.sdf']
2463,COc1ccc(-c2nnc(C(=O)N3CC(Oc4ccc(C[NH+](C)C)c(C)c4)C3)o2)cc1,O,0,0,9.3,['9.3'],['combined_training_datasets_unique.sdf']
2464,COc1ccc(-c2nnc(C(=O)N3CC(Oc4ccc(C[NH+](C)C)c(F)c4)C3)o2)cc1,O,0,0,8.6,['8.6'],['combined_training_datasets_unique.sdf']
2465,COc1ccc(-c2nnc(C(=O)N3CC(Oc4ccc(C[NH+](C)C)cc4)C3)o2)cc1,O,0,0,8.9,['8.9'],['combined_training_datasets_unique.sdf']
2466,COc1ccc(-c2nnc(C(=O)N3CC(Oc4ccc(C[NH+](C)C)cn4)C3)o2)cc1,O,0,0,8.5,['8.5'],['combined_training_datasets_unique.sdf']
2467,COc1ccc(-c2nnc(C(=O)N3CC(Oc4ccc(C[NH+](C)CC5(C)COC5)cc4)C3)o2)cc1,O,0,0,8.0,['8.0'],['combined_training_datasets_unique.sdf']
2468,COc1ccc(-c2nnc(C(=O)N3CC(Oc4ccc(C[NH+]5CC(OC)C5)cc4)C3)o2)cc1,O,0,0,8.5,['8.5'],['combined_training_datasets_unique.sdf']
2469,COc1ccc(-c2nnc(C(=O)N3CC(Oc4ccc(C[NH+]5CC6(CCCO6)C5)cc4)C3)o2)cc1,O,0,0,8.4,['8.4'],['combined_training_datasets_unique.sdf']
2470,COc1ccc(-c2nnc(C(=O)N3CC(Oc4ccc(C[NH+]5CC6(CCOC6)C5)cc4)C3)o2)cc1,O,0,0,8.6,['8.6'],['combined_training_datasets_unique.sdf']
2471,COc1ccc(-c2nnc(C(=O)N3CC(Oc4ccc(C[NH+]5CC6(COC6)C5)cc4)C3)o2)cc1,O,0,0,8.2,['8.2'],['combined_training_datasets_unique.sdf']
2472,COc1ccc(-c2nnc(C(=O)N3CC(Oc4ccc(C[NH+]5CCC(C)(O)C5)cc4)C3)o2)cc1,O,0,0,9.0,['9.0'],['combined_training_datasets_unique.sdf']
2473,COc1ccc(-c2nnc(C(=O)N3CC(Oc4ccc(C[NH+]5CCCC5)cc4)C3)o2)cc1,O,0,0,9.9,['9.9'],['combined_training_datasets_unique.sdf']
2474,COc1ccc(-c2nnc(C(=O)N3CC(Oc4ccc(C[NH+]5CCCC56COC6)cc4)C3)o2)cc1,O,0,0,6.0,['6.0'],['combined_training_datasets_unique.sdf']
2475,COc1ccc(-c2nnc(C(=O)N3CC(Oc4ccc(C[NH+]5CCCOCC5)cc4)C3)o2)cc1,O,0,0,8.1,['8.1'],['combined_training_datasets_unique.sdf']
2476,COc1ccc(-c2nnc(C(=O)N3CC(Oc4ccc(C[NH+]5CCOCC5)c(OC)c4)C3)o2)cc1,O,0,0,7.5,['7.5'],['combined_training_datasets_unique.sdf']
2477,COc1ccc(-c2nnc(C(=O)N3CCC(Oc4ccc(CN5CC[NH+](C)CC5)cc4)CC3)o2)cc1,O,0,0,8.5,['8.5'],['combined_training_datasets_unique.sdf']
2478,COc1ccc(-c2nnc(C(=O)N3CCC(Oc4ccc(C[NH+]5CC(O)C(C)(C)C5)cc4)CC3)o2)cc1,O,0,0,8.9,['8.9'],['combined_training_datasets_unique.sdf']
2479,COc1ccc(-c2nnc(C(=O)N3CCC(Oc4ccc(C[NH+]5CCC(O)C5)cc4)CC3)o2)cc1,O,0,0,8.9,['8.9'],['combined_training_datasets_unique.sdf']
2480,COc1ccc(-c2nnc(C(=O)N3CCC(Oc4ccc(C[NH+]5CCCC5)cn4)CC3)o2)cc1,O,0,0,9.2,['9.2'],['combined_training_datasets_unique.sdf']
2481,COc1ccc(-c2nnc(C(=O)N3CCC(Oc4ccc(C[NH+]5CCOCC5)cc4)CC3)o2)cc1,O,0,0,6.5,['6.5'],['combined_training_datasets_unique.sdf']
2482,COc1ccc(-n2[nH]c(C)cc2=O)cc1,O,0,0,7.06,['7.06'],['combined_training_datasets_unique.sdf']
2483,COc1ccc(-n2cc3nc(-c4ccccc4C)n(CC4CCC[NH+](C(C)C)C4)c(=O)c3n2)cc1,O,0,0,10.0,['10.0'],['combined_training_datasets_unique.sdf']
2484,COc1ccc(/C=C/C(=O)[O-])cc1,O,0,0,4.6,['4.6'],['combined_training_datasets_unique.sdf']
2485,COc1ccc(/C=C/C(=O)[O-])cc1OC,O,0,0,4.55,['4.55'],['combined_training_datasets_unique.sdf']
2486,COc1ccc(/C=C2/SC(=S)[N-]C2=O)cc1,O,0,0,5.8,['5.8'],['combined_training_datasets_unique.sdf']
2487,COc1ccc(/C=C\C(=O)[O-])cc1,O,0,0,4.03,['4.03'],['combined_training_datasets_unique.sdf']
2488,COc1ccc(/N=N/c2c(N)n[nH]c2N)cc1,O,0,0,3.39,['3.39'],['combined_training_datasets_unique.sdf']
2489,COc1ccc(/N=N/c2ccncc2)cc1,O,0,0,4.53,['4.53'],['combined_training_datasets_unique.sdf']
2490,COc1ccc(/[NH+]=C/N(C)C)cc1,O,0,0,9.35,['9.35'],['combined_training_datasets_unique.sdf']
2491,COc1ccc(C(=N)c2ccccc2)c(OC)c1,O,0,0,8.3,['8.3'],['combined_training_datasets_unique.sdf']
2492,COc1ccc(C(=O)C(N=O)SCC[N+](C)(C)C)cc1,O,0,0,7.71,['7.71'],['combined_training_datasets_unique.sdf']
2493,COc1ccc(C(=O)N[C@@H]2CCC[C@@H]3CC[NH+](C)C[C@@H]32)cc1,O,0,0,9.19,['9.19'],['combined_training_datasets_unique.sdf']
2494,COc1ccc(C(=O)N[C@@H]2CCC[C@@H]3CC[NH+](C)C[C@H]32)cc1OC,O,0,0,8.89,['8.89'],['combined_training_datasets_unique.sdf']
2495,COc1ccc(C(=O)Nc2ccccc2CCC2CCCC[NH+]2C)cc1,O,0,0,9.27,['9.27'],['combined_training_datasets_unique.sdf']
2496,COc1ccc(C(=O)O[C@H]2O[C@@H](C(=O)[O-])[C@H](O)[C@@H](O)[C@@H]2O)cc1OC,O,0,0,3.47,['3.47'],['combined_training_datasets_unique.sdf']
2497,COc1ccc(C(=O)[O-])c(C)c1,O,0,0,4.54,['4.54'],['combined_training_datasets_unique.sdf']
2498,COc1ccc(C(=O)[O-])cc1,O,0,0,4.45,['4.45'],['combined_training_datasets_unique.sdf']
2499,COc1ccc(C(=O)[O-])cc1-c1ccc(C#CCO)s1,O,0,0,4.2,['4.2'],['combined_training_datasets_unique.sdf']
2500,COc1ccc(C(=O)[O-])cc1C,O,0,0,4.35,['4.35'],['combined_training_datasets_unique.sdf']
2501,COc1ccc(C(=O)[S-])cc1,O,0,0,2.79,['2.79'],['combined_training_datasets_unique.sdf']
2502,COc1ccc(C(=O)c2ccc3n2CCC3C(=O)[O-])cc1,O,0,0,3.55,['3.55'],['combined_training_datasets_unique.sdf']
2503,COc1ccc(C(=O)c2coc(S(N)(=O)=O)c2)cc1,O,0,0,9.5,['9.5'],['combined_training_datasets_unique.sdf']
2504,COc1ccc(C(=O)c2csc(S(N)(=O)=O)c2)cc1,O,0,0,8.2,['8.2'],['combined_training_datasets_unique.sdf']
2505,COc1ccc(C(=S)Nc2ccc(Br)cc2)cc1,O,0,0,10.95,['10.95'],['combined_training_datasets_unique.sdf']
2506,COc1ccc(C(=S)Nc2ccc(C)cc2)cc1,O,0,0,11.81,['11.81'],['combined_training_datasets_unique.sdf']
2507,COc1ccc(C(=S)Nc2ccc(Cl)c(Cl)c2)cc1,O,0,0,10.14,['10.14'],['combined_training_datasets_unique.sdf']
2508,COc1ccc(C(=S)Nc2ccc(Cl)cc2)cc1,O,0,0,10.93,['10.93'],['combined_training_datasets_unique.sdf']
2509,COc1ccc(C(=S)Nc2ccccc2)cc1,O,0,0,11.27,['11.27'],['combined_training_datasets_unique.sdf']
2510,COc1ccc(C(C#N)N2CCCC2)cc1OC,O,0,0,4.3,['4.3'],['combined_training_datasets_unique.sdf']
2511,COc1ccc(C(C#N)N2CCCCC2)cc1OC,O,0,0,4.0,['4.0'],['combined_training_datasets_unique.sdf']
2512,COc1ccc(C(C#N)N2CC[NH+](C)CC2)cc1OC,O,0,0,7.6,['7.6'],['combined_training_datasets_unique.sdf']
2513,COc1ccc(C(CC(F)(F)CN)(c2ccccc2)c2ccc(C)cc2)cc1,O,0,0,7.11,['7.11'],['combined_training_datasets_unique.sdf']
2514,COc1ccc(C(CC(F)C[NH3+])(c2ccccc2)c2ccc(C)cc2)cc1,O,0,0,7.86,['7.86'],['combined_training_datasets_unique.sdf']
2515,COc1ccc(C(CCC(N)C(F)(F)F)(c2ccccc2)c2ccc(C)cc2)cc1,O,0,0,4.63,['4.63'],['combined_training_datasets_unique.sdf']
2516,COc1ccc(C(CCC[NH3+])(c2ccccc2)c2ccccc2)cc1,O,0,0,9.86,['9.86'],['combined_training_datasets_unique.sdf']
2517,COc1ccc(C(C[NH+](C)C)C2(O)CCCCC2)cc1,O,0,0,9.671429,['9.671429'],['combined_training_datasets_unique.sdf']
2518,COc1ccc(C(O)C[NH2+]C(C)CC2=C(C)C(C)(C)CC2)cc1,O,0,0,8.79,['8.79'],['combined_training_datasets_unique.sdf']
2519,COc1ccc(C(O)C[NH3+])cc1,O,0,0,9.02,['9.02'],['combined_training_datasets_unique.sdf']
2520,COc1ccc(C)c(C(=O)[O-])c1,O,0,0,3.84,['3.84'],['combined_training_datasets_unique.sdf']
2521,COc1ccc(C2(c3cccc(-c4cncnc4)c3)CCC(N)=[NH+]2)cc1,O,0,0,10.0,['10.0'],['combined_training_datasets_unique.sdf']
2522,COc1ccc(C2(c3cccc(-c4cncnc4)c3)N=C(C(C)C)C(N)=[NH+]2)cc1,O,0,0,5.3,['5.3'],['combined_training_datasets_unique.sdf']
2523,COc1ccc(C2(c3cccc(-c4cncnc4)c3)N=C(C)C(N)=[NH+]2)cc1,O,0,0,5.2,['5.2'],['combined_training_datasets_unique.sdf']
2524,COc1ccc(C2(c3cccc(-c4cncnc4)c3)[NH+]=C(N)N3CC(F)(F)C[NH+]=C32)cc1,O,0,0,6.8,['6.8'],['combined_training_datasets_unique.sdf']
2525,COc1ccc(C2(c3cccc(-c4cncnc4)c3)[NH+]=C(N)c3c(F)cccc32)cc1,O,0,0,8.2,['8.2'],['combined_training_datasets_unique.sdf']
2526,COc1ccc(C2(c3cccc(-c4cncnc4)c3)[NH+]=C(N)n3nc(C)cc32)cc1,O,0,0,5.4,['5.4'],['combined_training_datasets_unique.sdf']
2527,COc1ccc(C2CCC[NH+]2C)cc1,O,0,0,8.9,['8.9'],['combined_training_datasets_unique.sdf']
2528,COc1ccc(C2C[NH2+]2)cc1,O,0,0,8.7,['8.7'],['combined_training_datasets_unique.sdf']
2529,COc1ccc(C2[NH2+]CCS2)cc1,O,0,0,5.45,['5.45'],['combined_training_datasets_unique.sdf']
2530,COc1ccc(C=O)cc1C(=O)N[C@H]1C[C@@H]2CC[C@H](C1)[NH+]2Cc1ccccc1,O,0,0,8.74,['8.74'],['combined_training_datasets_unique.sdf']
2531,COc1ccc(C=O)cc1O,O,0,0,8.89,['8.89'],['combined_training_datasets_unique.sdf']
2532,COc1ccc(CC(=O)NC2CC[NH+](CC[C@H](NC(=O)C3CCC3)c3ccccc3)CC2)cc1,O,0,0,8.2,['8.2'],['combined_training_datasets_unique.sdf']
2533,COc1ccc(CC(=O)[O-])cc1,O,0,0,4.36,['4.36'],['combined_training_datasets_unique.sdf']
2534,COc1ccc(CC(C(C)=O)=C(C)O)cc1,O,0,0,10.57,['10.57'],['combined_training_datasets_unique.sdf']
2535,COc1ccc(CC(C)[NH3+])cc1,O,0,0,9.53,['9.53'],['combined_training_datasets_unique.sdf']
2536,COc1ccc(CC2=NC(=O)NC2=O)cc1,O,0,0,8.9,['8.9'],['combined_training_datasets_unique.sdf']
2537,COc1ccc(CCC(=O)[O-])cc1,O,0,0,4.72,['4.72'],['combined_training_datasets_unique.sdf']
2538,COc1ccc(CCC[NH+](C)C)cc1,O,0,0,10.91,['10.91'],['combined_training_datasets_unique.sdf']
2539,COc1ccc(CCC[NH+](C)C)cc1Cl,O,0,0,10.76,['10.76'],['combined_training_datasets_unique.sdf']
2540,COc1ccc(CC[NH+](C)CCCC(C#N)(c2ccc(OC)c(OC)c2)C(C)C)cc1OC,O,0,0,8.881667,['8.881667'],['combined_training_datasets_unique.sdf']
2541,COc1ccc(CC[NH+](C)CCC[C@](C#N)(c2ccc(OC)c(OC)c2)C(C)C)cc1OC,O,0,0,8.66,['8.66'],['combined_training_datasets_unique.sdf']
2542,COc1ccc(CC[NH2+]CC(O)COc2ccc(-c3ncco3)cc2)cc1OC,O,0,0,8.4,['8.4'],['combined_training_datasets_unique.sdf']
2543,COc1ccc(CC[NH2+]CC(O)COc2cccc(C)c2)cc1OC,O,0,0,8.4,['8.4'],['combined_training_datasets_unique.sdf']
2544,COc1ccc(CC[NH2+]CCCC(C#N)(c2ccc(OC)c(OC)c2)C(C)C)cc1OC,O,0,0,9.87,['9.87'],['combined_training_datasets_unique.sdf']
2545,COc1ccc(CC[NH3+])cc1,O,0,0,9.79,['9.79'],['combined_training_datasets_unique.sdf']
2546,COc1ccc(CC[NH3+])cc1OC,O,0,0,9.87,['9.87'],['combined_training_datasets_unique.sdf']
2547,COc1ccc(CNC(=O)N2[C@@H](C)c3ccncc3N(CCC(C)C)C[C@H]2C)cc1,O,0,0,6.4,['6.4'],['combined_training_datasets_unique.sdf']
2548,COc1ccc(CON)cc1,O,0,0,4.42,['4.42'],['combined_training_datasets_unique.sdf']
2549,COc1ccc(COc2cccc(NC(=O)C3CCN(c4cc[nH+]cc4)CC3)c2)cc1OC,O,0,0,9.2,['9.2'],['combined_training_datasets_unique.sdf']
2550,COc1ccc(C[C@H](C)[NH3+])cc1OC,O,0,0,9.6,['9.6'],['combined_training_datasets_unique.sdf']
2551,COc1ccc(C[NH+]=C(N)C(Cl)(Cl)Br)cc1,O,0,0,6.15,['6.15'],['combined_training_datasets_unique.sdf']
2552,COc1ccc(C[NH+]=C(N)C(Cl)(Cl)Cl)cc1,O,0,0,6.0,['6.0'],['combined_training_datasets_unique.sdf']
2553,COc1ccc(C[NH3+])cc1,O,0,0,9.67,['9.67'],['combined_training_datasets_unique.sdf']
2554,COc1ccc(C[NH3+])cc1OC,O,0,0,9.39,['9.39'],['combined_training_datasets_unique.sdf']
2555,COc1ccc(Cc2c3ccccc3nc3ccccc23)cc1,O,0,0,7.94,['7.94'],['combined_training_datasets_unique.sdf']
2556,COc1ccc(Cc2cc(=O)c3ccc(O)cc3o2)cc1,O,0,0,7.35,['7.35'],['combined_training_datasets_unique.sdf']
2557,COc1ccc(Cc2nccc3cc(OC)c(OC)cc23)cc1OC,O,0,0,6.25,['6.25'],['combined_training_datasets_unique.sdf']
2558,COc1ccc(Cl)c(Nc2ccccc2CC(=O)[O-])c1Cl,O,0,0,3.95,['3.95'],['combined_training_datasets_unique.sdf']
2559,COc1ccc(Cl)c2cccnc12,O,0,0,4.13,['4.13'],['combined_training_datasets_unique.sdf']
2560,COc1ccc(Cl)cc1C(=O)NCCc1ccc(S(=O)(=O)NC(=O)NC2CCCCC2)cc1,O,0,0,5.3,['5.3'],['combined_training_datasets_unique.sdf']
2561,COc1ccc(Cl)cc1Nc1cc(C(F)(F)F)c(C(=O)NCC2CCC2)cn1,O,0,0,2.63,['2.63'],['combined_training_datasets_unique.sdf']
2562,COc1ccc(Cl)cc1Nc1cc(C(F)(F)F)c(C(=O)NCC2CCOCC2)cn1,O,0,0,2.63,['2.63'],['combined_training_datasets_unique.sdf']
2563,COc1ccc(Cl)cc1S(=O)(=O)NC(=O)NC(C)C,O,0,0,5.65,['5.65'],['combined_training_datasets_unique.sdf']
2564,COc1ccc(Cl)cc1S(=O)(=O)NC(=O)Nc1ccccc1,O,0,0,4.5,['4.5'],['combined_training_datasets_unique.sdf']
2565,COc1ccc(Cl)cc1S(=O)(=O)NC(=S)NC(C)C,O,0,0,5.74,['5.74'],['combined_training_datasets_unique.sdf']
2566,COc1ccc(Cn2c(=O)n3ncnc3c3c4c(sc32)C[NH+](CC2CCOCC2)CC4)cc1,O,0,0,6.6,['6.6'],['combined_training_datasets_unique.sdf']
2567,COc1ccc(Cn2cc(-c3nn[n-]n3)c(=O)c3c(F)ccc(F)c32)cc1,O,0,0,5.4,['5.4'],['combined_training_datasets_unique.sdf']
2568,COc1ccc(Cn2cc(C(=O)NC(C)=O)c(=O)c3c(F)ccc(F)c32)cc1,O,0,0,8.0,['8.0'],['combined_training_datasets_unique.sdf']
2569,COc1ccc(Cn2cc(C(=O)NO)c(=O)c3c(F)ccc(F)c32)cc1,O,0,0,8.0,['8.0'],['combined_training_datasets_unique.sdf']
2570,COc1ccc(Cn2cc(C(=O)NS(C)(=O)=O)c(=O)c3c(F)ccc(F)c32)cc1,O,0,0,4.5,['4.5'],['combined_training_datasets_unique.sdf']
2571,COc1ccc(Cn2cc(C(=O)[O-])c(=O)c3c(F)ccc(F)c32)cc1,O,0,0,6.0,['6.0'],['combined_training_datasets_unique.sdf']
2572,COc1ccc(F)cc1C(=O)N[C@H]1C[C@@H]2CC[C@H](C1)[NH+]2Cc1ccccc1,O,0,0,8.82,['8.82'],['combined_training_datasets_unique.sdf']
2573,COc1ccc(F)cc1S(=O)(=O)NC(=O)NC(C)C,O,0,0,5.52,['5.52'],['combined_training_datasets_unique.sdf']
2574,COc1ccc(I)cc1C(=O)N[C@H]1C[C@@H]2CC[C@H](C1)[NH+]2Cc1ccccc1,O,0,0,8.79,['8.79'],['combined_training_datasets_unique.sdf']
2575,COc1ccc(N(C)C)cc1,O,0,0,5.86,['5.86'],['combined_training_datasets_unique.sdf']
2576,COc1ccc(N(Cc2nn[n-]n2)Cc2ccc(Cl)cc2Cl)cc1,O,0,0,4.29,['4.29'],['combined_training_datasets_unique.sdf']
2577,COc1ccc(N(Cc2nn[n-]n2)Cc2ccc(F)cc2F)cc1,O,0,0,4.31,['4.31'],['combined_training_datasets_unique.sdf']
2578,COc1ccc(N)cc1,O,0,0,5.076667,['5.076667'],['combined_training_datasets_unique.sdf']
2579,COc1ccc(N)cc1Br,O,0,0,4.09,['4.09'],['combined_training_datasets_unique.sdf']
2580,COc1ccc(N)cn1,O,0,0,4.24,['4.24'],['combined_training_datasets_unique.sdf']
2581,COc1ccc(N2CC[NH+](CCCCNC(=O)c3ccc4nonc4c3)CC2)cc1,O,0,0,7.51,['7.51'],['combined_training_datasets_unique.sdf']