,Solute SMILES,Solvent SMILES,Solute CAS,Solute IUPAC,pKa (avg),pKa (all),Source
2219,COC(=O)Nc1ccc(Cc2c3ccccc3nc3ccccc23)cc1,O,0,0,7.64,['7.64'],['combined_training_datasets_unique.sdf']
2220,COC(=O)Nc1ccc(Nc2c3ccccc3nc3ccccc23)cc1,O,0,0,7.64,['7.64'],['combined_training_datasets_unique.sdf']
2221,COC(=O)Nc1ccccc1Nc1c2ccccc2nc2ccccc12,O,0,0,7.24,['7.24'],['combined_training_datasets_unique.sdf']
2222,COC(=O)Nc1nc2nc(C)ncc2cc1-c1c(Cl)cccc1Cl,O,0,0,4.2,['4.2'],['combined_training_datasets_unique.sdf']
2223,COC(=O)[C@@H]1CSC[NH2+]1,O,0,0,3.92,['3.92'],['combined_training_datasets_unique.sdf']
2224,COC(=O)[C@@H]1[C@@H](O)C[C@H]2CC[C@@H]1[NH+]2C,O,0,0,8.21,['8.21'],['combined_training_datasets_unique.sdf']
2225,COC(=O)[C@@H]1[C@H](O)CC[C@@H]2C[n+]3ccc4c([nH]c5ccccc54)c3C[C@H]21,O,0,0,10.69,['10.69'],['combined_training_datasets_unique.sdf']
2226,COC(=O)[C@@H]1[C@H](O)C[C@@H]2CC[C@H]1[NH+]2C,O,0,0,8.85,['8.85'],['combined_training_datasets_unique.sdf']
2227,COC(=O)[C@@H]1[C@H](OC(=O)c2ccccc2)C[C@@H]2CC[C@H]1[NH+]2C,O,0,0,8.63,['8.63'],['combined_training_datasets_unique.sdf']
2228,COC(=O)[C@H](Cc1cnc[nH]1)NC(C)=O,O,0,0,6.3,['6.3'],['combined_training_datasets_unique.sdf']
2229,COC(=O)[C@H](NC(=O)Cc1ccccc1)[C@@H]1SC(C)(C)[C@H]2C(=O)NC(=S)N12,O,0,0,8.0,['8.0'],['combined_training_datasets_unique.sdf']
2230,COC(=O)[C@H]1[C@@H](OC(=O)c2ccccc2)C[C@@H]2CC[C@H]1[NH+]2C,O,0,0,8.7,['8.7'],['combined_training_datasets_unique.sdf']
2231,COC(=O)[C@H]1[C@H]2C[C@@H]3c4[nH]c5cc(OC)ccc5c4CC[NH+]3C[C@H]2C[C@@H](OC(=O)c2cc(OC)c(OC)c(OC)c2)[C@@H]1OC,O,0,0,6.925,['6.925'],['combined_training_datasets_unique.sdf']
2232,COC(=O)c1c2ccccc2nc2ccccc12,O,0,0,3.45,['3.45'],['combined_training_datasets_unique.sdf']
2233,COC(=O)c1cc(Br)c(=O)n(N)c1,O,0,0,2.4,['2.4'],['combined_training_datasets_unique.sdf']
2234,COC(=O)c1cc(S(N)(=O)=O)ccc1S(=O)(=O)CCCO,O,0,0,8.9,['8.9'],['combined_training_datasets_unique.sdf']
2235,COC(=O)c1cc(S(N)(=O)=O)ccc1S(=O)(=O)CCO,O,0,0,9.2,['9.2'],['combined_training_datasets_unique.sdf']
2236,COC(=O)c1cc(S(N)(=O)=O)ccc1SCCCO,O,0,0,9.3,['9.3'],['combined_training_datasets_unique.sdf']
2237,COC(=O)c1ccc(N(C)C)cc1,O,0,0,2.61,['2.61'],['combined_training_datasets_unique.sdf']
2238,COC(=O)c1ccc(N)cc1,O,0,0,2.45,['2.45'],['combined_training_datasets_unique.sdf']
2239,COC(=O)c1ccc(NC=S)cc1,O,0,0,10.95,['10.95'],['combined_training_datasets_unique.sdf']
2240,COC(=O)c1ccc(Nc2c3ccccc3nc3ccccc23)cc1,O,0,0,6.21,['6.21'],['combined_training_datasets_unique.sdf']
2241,COC(=O)c1ccc(O)cc1,O,0,0,8.42,['8.42'],['combined_training_datasets_unique.sdf']
2242,COC(=O)c1ccc(OS(N)(=O)=O)cc1,O,0,0,8.28,['8.28'],['combined_training_datasets_unique.sdf']
2243,COC(=O)c1ccc2ncccc2c1,O,0,0,3.8,['3.8'],['combined_training_datasets_unique.sdf']
2244,COC(=O)c1cccc(N)c1,O,0,0,3.55,['3.55'],['combined_training_datasets_unique.sdf']
2245,COC(=O)c1cccc(NC=S)c1,O,0,0,10.81,['10.81'],['combined_training_datasets_unique.sdf']
2246,COC(=O)c1ccccc1Nc1c2ccccc2nc2ccccc12,O,0,0,6.3,['6.3'],['combined_training_datasets_unique.sdf']
2247,COC(=O)c1ccccc1O,O,0,0,10.25,['10.25'],['combined_training_datasets_unique.sdf']
2248,COC(=O)c1ccccc1[S-],O,0,0,6.3,['6.3'],['combined_training_datasets_unique.sdf']
2249,COC(=O)c1cccnc1,O,0,0,3.535,['3.535'],['combined_training_datasets_unique.sdf']
2250,COC(=O)c1ccncc1,O,0,0,3.38,['3.38'],['combined_training_datasets_unique.sdf']
2251,COC(=O)c1nc2c(N[C@H](C)CO)nc(SCc3cccc(F)c3F)nc2[nH]c1=O,O,0,0,6.6,['6.6'],['combined_training_datasets_unique.sdf']
2252,COC(=S)C1c2ccccc2-c2ccccc21,O,0,0,7.4,['7.4'],['combined_training_datasets_unique.sdf']
2253,COC(N)=[NH2+],O,0,0,9.72,['9.72'],['combined_training_datasets_unique.sdf']
2254,COC1=C(O)C(=O)O[C@@H]1[C@@H](O)CO,O,0,0,7.54,['7.54'],['combined_training_datasets_unique.sdf']
2255,COC1=CC2CCC1(C(=O)[O-])CC2,O,0,0,4.45,['4.45'],['combined_training_datasets_unique.sdf']
2256,COC1=CC=C2[C@@H]3Cc4ccc(OC)c5c4[C@]2(CC[NH+]3C)[C@@H]1O5,O,0,0,8.15,['8.15'],['combined_training_datasets_unique.sdf']
2257,COC1CC2CC[NH+]1CC2,O,0,0,8.87,['8.87'],['combined_training_datasets_unique.sdf']
2258,COC1CCN(C(=O)c2cc3cc(OC4CC[NH+](C(C)C)CC4)ccc3[nH]2)CC1,O,0,0,9.9,['9.9'],['combined_training_datasets_unique.sdf']
2259,COC1CCN(C(=O)c2ccc3cc(OC4CC[NH+](C(C)C)CC4)ccc3c2)CC1,O,0,0,9.4,['9.4'],['combined_training_datasets_unique.sdf']
2260,COC1CCN(C(=O)c2ccc3cc(OC4CC[NH+](C(C)C)CC4)ccc3n2)CC1,O,0,0,9.5,['9.5'],['combined_training_datasets_unique.sdf']
2261,COC1CCN(C(=O)c2ccc3cc(OCCC[NH+]4CCCCC4)ccc3c2)CC1,O,0,0,9.57,['9.57'],['combined_training_datasets_unique.sdf']
2262,COC1CCN(S(=O)(=O)c2ccc(S(N)(=O)=O)c(C(F)(F)F)c2)CC1,O,0,0,8.12,['8.12'],['combined_training_datasets_unique.sdf']
2263,COC1CCN(S(=O)(=O)c2ccc(S(N)(=O)=O)c(Cl)c2)CC1,O,0,0,8.76,['8.76'],['combined_training_datasets_unique.sdf']
2264,COC1CCN(S(=O)(=O)c2ccc(S(N)(=O)=O)cc2)CC1,O,0,0,9.42,['9.42'],['combined_training_datasets_unique.sdf']
2265,COC1CN(C(=O)c2cc3c(nc(C)n3C)c3c2CC[C@@H](c2ccc(Cl)cc2C)O3)C1,O,0,0,5.48,['5.48'],['combined_training_datasets_unique.sdf']
2266,COCC(=O)OCCCS(=O)(=O)c1ccc(S(N)(=O)=O)s1,O,0,0,8.1,['8.1'],['combined_training_datasets_unique.sdf']
2267,COCC(=O)[O-],O,0,0,3.53,['3.53'],['combined_training_datasets_unique.sdf']
2268,COCC(C)C[NH+](C)C,O,0,0,9.69,['9.69'],['combined_training_datasets_unique.sdf']
2269,COCC(COC)NC(=O)c1nc(N2CC[C@@H](NC(=O)c3[nH]c(C)c(Cl)c3Cl)[C@@H](OC)C2)sc1C(=O)[O-],O,0,0,4.5,['4.5'],['combined_training_datasets_unique.sdf']
2270,COCC/N=C(\c1ccccc1)C(C)(C)O,O,0,0,5.75,['5.75'],['combined_training_datasets_unique.sdf']
2271,COCC1(C)[NH2+]CCc2c1oc1cc(S(=O)(=O)c3cccc(F)c3)ccc21,O,0,0,7.5,['7.5'],['combined_training_datasets_unique.sdf']
2272,COCC1=C(C(=O)[O-])C2C=CC1C2,O,0,0,4.59,['4.59'],['combined_training_datasets_unique.sdf']
2273,COCC1=C(C(=O)[O-])CC1,O,0,0,4.31,['4.31'],['combined_training_datasets_unique.sdf']
2274,COCC1=C(C(=O)[O-])CCC1,O,0,0,4.5,['4.5'],['combined_training_datasets_unique.sdf']
2275,COCC1CC(C(=O)NC[C@H]2CCCO2)C[NH+](Cc2nc(N3CCOCC3)oc2C)C1,O,0,0,7.5,['7.5'],['combined_training_datasets_unique.sdf']
2276,COCCCC/C(=N\OCC[NH3+])c1ccc(C(F)(F)F)cc1,O,0,0,9.45,['9.45'],['combined_training_datasets_unique.sdf']
2277,COCCCCNc1ccccc1,O,0,0,4.6,['4.6'],['combined_training_datasets_unique.sdf']
2278,COCCCCc1cc(C[C@@H](C[C@H]([NH3+])[C@@H](O)C[C@H](C(=O)NCC(C)(C)C(N)=O)C(C)C)C(C)C)ccc1OC,O,0,0,9.44,['9.44'],['combined_training_datasets_unique.sdf']
2279,COCCCOc1cc(C[C@@H](C[C@H]([NH3+])[C@@H](O)C[C@H](C(=O)NCC(C)(C)C(N)=O)C(C)C)C(C)C)ccc1OC,O,0,0,9.8,['9.8'],['combined_training_datasets_unique.sdf']
2280,COCCCOc1cc(C[C@@H](C[C@H]([NH3+])[C@@H](O)C[C@H](C(=O)NC[C@H]2CCC(=O)N2)C(C)C)C(C)C)ccc1OC,O,0,0,9.09,['9.09'],['combined_training_datasets_unique.sdf']
2281,COCCC[NH+](C)C,O,0,0,9.36,['9.36'],['combined_training_datasets_unique.sdf']
2282,COCCC[NH3+],O,0,0,9.92,['9.92'],['combined_training_datasets_unique.sdf']
2283,COCCN(C)c1ccccc1,O,0,0,4.81,['4.81'],['combined_training_datasets_unique.sdf']
2284,COCCNC(=O)c1cc(N[C@H]2c3ccccc3C[C@@H]2O)c2nc(C)c(C)n2c1,O,0,0,6.01,['6.01'],['combined_training_datasets_unique.sdf']
2285,COCCNC(=O)c1cn2c(C)c(C)nc2c2c1CCC(c1ccccc1)C2,O,0,0,7.22,['7.22'],['combined_training_datasets_unique.sdf']
2286,COCCNC(=O)c1nc(N2CC[C@@H](NC(=O)c3[nH]c(C)c(Cl)c3Cl)[C@@H](OC)C2)sc1C(=O)[O-],O,0,0,4.4,['4.4'],['combined_training_datasets_unique.sdf']
2287,COCCNC(=S)S,O,0,0,2.85,['2.85'],['combined_training_datasets_unique.sdf']
2288,COCCNc1ccc(C)cc1,O,0,0,4.64,['4.64'],['combined_training_datasets_unique.sdf']
2289,COCCNc1ccc(Cl)cc1,O,0,0,3.3,['3.3'],['combined_training_datasets_unique.sdf']
2290,COCCNc1ccc(OC)cc1,O,0,0,5.02,['5.02'],['combined_training_datasets_unique.sdf']
2291,COCCNc1cccc(C)c1,O,0,0,4.29,['4.29'],['combined_training_datasets_unique.sdf']
2292,COCCNc1cccc(OC)c1,O,0,0,3.7,['3.7'],['combined_training_datasets_unique.sdf']
2293,COCCNc1ccccc1,O,0,0,4.05,['4.05'],['combined_training_datasets_unique.sdf']
2294,COCCOc1ccc(-c2cc3c(C(=O)[O-])c[nH]c3cc2Cl)cc1,O,0,0,5.0,['5.0'],['combined_training_datasets_unique.sdf']
2295,COCC[NH+](C)C,O,0,0,8.96,['8.96'],['combined_training_datasets_unique.sdf']
2296,COCC[NH+]1CCC[C@@H](Cn2c(-c3ccccc3C)nc3cn(-c4ccc(Cl)cc4)nc3c2=O)C1,O,0,0,8.5,['8.5'],['combined_training_datasets_unique.sdf']
2297,COCC[NH3+],O,0,0,9.67,['9.67'],['combined_training_datasets_unique.sdf']
2298,COCCc1[nH]c(C)c[nH+]1,O,0,0,8.13,['8.13'],['combined_training_datasets_unique.sdf']
2299,COCCc1ccc(OCC(O)C[NH2+]C(C)C)cc1,O,0,0,9.536,['9.536'],['combined_training_datasets_unique.sdf']
2300,COCCc1ccc(OC[C@@H](O)C[NH2+]C(C)C)cc1,O,0,0,9.6,['9.6'],['combined_training_datasets_unique.sdf']
2301,COCCn1cc(C(=O)c2cccc3ccccc23)c2ccncc21,O,0,0,5.8,['5.8'],['combined_training_datasets_unique.sdf']
2302,COC[C@@H](Oc1cc(C[C@@H]2CS(=O)C[C@H](NCc3cc(CC(C)(C)C)on3)[C@H]2O)cc(F)c1N)C(F)(F)F,O,0,0,4.9,['4.9'],['combined_training_datasets_unique.sdf']
2303,COC[C@H](C)NC(=O)c1nc(N2CC[C@@H](NC(=O)c3[nH]c(C)c(Cl)c3Cl)[C@@H](OC)C2)sc1C(=O)[O-],O,0,0,4.2,['4.2'],['combined_training_datasets_unique.sdf']
2304,COC[C@H](C1CC1)n1cc(Cl)nc(Nc2cc(C)c(OC)nc2C)c1=O,O,0,0,3.1,['3.1'],['combined_training_datasets_unique.sdf']
2305,COCc1[nH]c(C)c[nH+]1,O,0,0,7.03,['7.03'],['combined_training_datasets_unique.sdf']
2306,COCc1ccc(C(=O)[O-])cc1,O,0,0,4.18,['4.18'],['combined_training_datasets_unique.sdf']
2307,COCc1cccc(COC)n1,O,0,0,3.43,['3.43'],['combined_training_datasets_unique.sdf']
2308,COCc1ccccc1C(=O)[O-],O,0,0,3.85,['3.85'],['combined_training_datasets_unique.sdf']
2309,COCc1ccccc1C[NH+](C)C,O,0,0,9.19,['9.19'],['combined_training_datasets_unique.sdf']
2310,COCc1ccccc1[C@@H]1CCc2c(C(=O)N(C)C)cc3c(nc(C)n3C)c2O1,O,0,0,5.61,['5.61'],['combined_training_datasets_unique.sdf']
2311,COCc1cn2c(C)c(C)nc2c2c1CCC(c1ccccc1)C2,O,0,0,7.79,['7.79'],['combined_training_datasets_unique.sdf']
2312,COCc1nc2c(n1C)C(=O)c1nc[nH]c(=O)c1C2=O,O,0,0,6.17,['6.17'],['combined_training_datasets_unique.sdf']
2313,CON,O,0,0,4.62,['4.62'],['combined_training_datasets_unique.sdf']
2314,CON(C)C,O,0,0,3.65,['3.65'],['combined_training_datasets_unique.sdf']
2315,CON(C)C(=O)c1cn2c(C)c(C)nc2c2c1CCC(c1ccccc1)O2,O,0,0,6.49,['6.49'],['combined_training_datasets_unique.sdf']
2316,CON(C)C(=O)c1cn2c(C)c(C)nc2c2c1CCC1(CCc3ccccc31)O2,O,0,0,6.63,['6.63'],['combined_training_datasets_unique.sdf']
2317,CONC(=O)CCc1ccccc1,O,0,0,9.47,['9.47'],['combined_training_datasets_unique.sdf']
2318,COO,O,0,0,11.5,['11.5'],['combined_training_datasets_unique.sdf']
2319,CO[C@@H]1[C@@H](OC(=O)c2ccc(C)[nH]2)[C@@H](O)[C@H](Oc2ccc3c(N(C)CC[NH+](C)C)cc(=O)oc3c2C)OC1(C)C,O,0,0,8.2,['8.2'],['combined_training_datasets_unique.sdf']
2320,CO[C@@H]1[C@@H](OC(=O)c2ccc(C)[nH]2)[C@@H](O)[C@H](Oc2ccc3c(N4CC(C)[NH2+]C(C)C4)cc(=O)oc3c2C)OC1(C)C,O,0,0,8.0,['8.0'],['combined_training_datasets_unique.sdf']
2321,CO[C@@H]1[C@@H](OC(=O)c2ccc(C)[nH]2)[C@@H](O)[C@H](Oc2ccc3c(N4CCC([NH+](C)C)CC4)cc(=O)oc3c2C)OC1(C)C,O,0,0,9.0,['9.0'],['combined_training_datasets_unique.sdf']
2322,CO[C@@H]1[C@@H](OC(=O)c2ccc(C)[nH]2)[C@@H](O)[C@H](Oc2ccc3c(N4CC[NH+](C)CC4)c(Cl)c(=O)oc3c2C)OC1(C)C,O,0,0,7.4,['7.4'],['combined_training_datasets_unique.sdf']
2323,CO[C@@H]1[C@@H](OC(=O)c2ccc(C)[nH]2)[C@@H](O)[C@H](Oc2ccc3c(N4CC[NH+](C)CC4)cc(=O)oc3c2C)OC1(C)C,O,0,0,7.3,['7.3'],['combined_training_datasets_unique.sdf']
2324,CO[C@@H]1[C@@H](OC(=O)c2ccc(C)[nH]2)[C@@H](O)[C@H](Oc2ccc3c(N4CC[NH2+]C(C)C4)cc(=O)oc3c2C)OC1(C)C,O,0,0,8.3,['8.3'],['combined_training_datasets_unique.sdf']
2325,CO[C@@H]1[C@@H](OC(=O)c2ccc(C)[nH]2)[C@@H](O)[C@H](Oc2ccc3c(N4CC[NH2+]CC4)cc(=O)oc3c2C)OC1(C)C,O,0,0,8.3,['8.3'],['combined_training_datasets_unique.sdf']
2326,CO[C@H]1C(=O)N2C(C(=O)C(C)(C)C)=C(C)C(Sc3nnc(C)s3)S(=O)(=O)[C@H]12,O,0,0,7.5,['7.5'],['combined_training_datasets_unique.sdf']
2327,CO[C@H]1C(=O)N2C(C(=O)C(C)(C)C)=C(C)C(Sc3nnnn3C)S(=O)(=O)[C@H]12,O,0,0,7.9,['7.9'],['combined_training_datasets_unique.sdf']
2328,CO[C@H]1C(=O)N2C(C(=O)C(C)(C)C)=C(CSc3nnc(C)s3)CS(=O)(=O)[C@H]12,O,0,0,11.9,['11.9'],['combined_training_datasets_unique.sdf']
2329,CO[C@H]1C(=O)N2C(C(=O)C(C)(C)C)=C(CSc3nnnn3C)CS(=O)(=O)[C@H]12,O,0,0,11.6,['11.6'],['combined_training_datasets_unique.sdf']
2330,CO[C@H]1C(=O)N2C(C(=O)c3ccccc3)=C(C)CS(=O)(=O)[C@H]12,O,0,0,9.6,['9.6'],['combined_training_datasets_unique.sdf']
2331,CO[C@H]1C(=O)N2C(C(=O)c3ccccc3)=C(CSc3nnnn3C)CS(=O)(=O)[C@H]12,O,0,0,8.4,['8.4'],['combined_training_datasets_unique.sdf']
2332,CO[C@H]1C=CC2=CC[NH+]3CCC(CO)=C(CCO)[C@]23C1,O,0,0,7.8,['7.8'],['combined_training_datasets_unique.sdf']
2333,CO[C@H]1C=CC2=CC[NH+]3CC[C@H](CO)/C(=C\CO)[C@]23C1,O,0,0,7.79,['7.79'],['combined_training_datasets_unique.sdf']
2334,CO[C@H]1CC=C2CC[NH+]3CCC(CO)=C(CCO)[C@]23C1,O,0,0,8.69,['8.69'],['combined_training_datasets_unique.sdf']
2335,CO[C@H]1CC=C2CC[NH+]3CC[C@H](CO)/C(=C\CO)[C@]23C1,O,0,0,8.42,['8.42'],['combined_training_datasets_unique.sdf']
2336,CO[C@H]1CN(c2nc(-c3cnccn3)c(C(=O)[O-])s2)CC[C@H]1NC(=O)c1[nH]c(C)c(Cl)c1Cl,O,0,0,5.4,['5.4'],['combined_training_datasets_unique.sdf']
2337,CO[C@H]1CN(c2nc(-c3ncccn3)c(C(=O)[O-])s2)CC[C@H]1NC(=O)c1[nH]c(C)c(Cl)c1Cl,O,0,0,5.2,['5.2'],['combined_training_datasets_unique.sdf']
2338,CO[C@H]1CN(c2nc(-c3ncnn3C)c(C(=O)[O-])s2)CC[C@H]1NC(=O)c1[nH]c(C)c(Cl)c1Cl,O,0,0,4.5,['4.5'],['combined_training_datasets_unique.sdf']
2339,CO[C@H]1CN(c2ncc(C(=O)[O-])s2)CC[C@H]1NC(=O)c1[nH]c(C)c(Cl)c1Cl,O,0,0,3.6,['3.6'],['combined_training_datasets_unique.sdf']
2340,CO[C@H]1C[C@@H]1C(=O)[O-],O,0,0,4.47,['4.47'],['combined_training_datasets_unique.sdf']
2341,CO[C@H]1C[C@H]1C(=O)[O-],O,0,0,4.76,['4.76'],['combined_training_datasets_unique.sdf']
2342,CO[C@H]1O[C@H](C(=O)[O-])[C@H](O)[C@H](O)[C@H]1O,O,0,0,3.55,['3.55'],['combined_training_datasets_unique.sdf']
2343,COc1c(Br)cccc1C(=O)N[C@H]1C[C@@H]2CC[C@H](C1)[NH+]2Cc1ccccc1,O,0,0,8.73,['8.73'],['combined_training_datasets_unique.sdf']
2344,COc1c(C(=O)[O-])oc2ccccc12,O,0,0,3.7,['3.7'],['combined_training_datasets_unique.sdf']
2345,COc1c(C)cc(C2(c3cccc(-c4cncnc4)c3)N=C(C)C(N)=[NH+]2)cc1C,O,0,0,5.3,['5.3'],['combined_training_datasets_unique.sdf']
2346,COc1c(C)cc(C2(c3cccc(-c4cncnc4)c3)[NH+]=C(N)c3c(F)cccc32)nc1C,O,0,0,8.1,['8.1'],['combined_training_datasets_unique.sdf']
2347,COc1c(C)cc([C@@]2(c3cccc(-c4cncnc4)c3)N=C(C)C(N)=[NH+]2)cc1C,O,0,0,5.2,['5.2'],['combined_training_datasets_unique.sdf']
2348,COc1c(C)cc2c(c1C(=O)[O-])COC2,O,0,0,3.13,['3.13'],['combined_training_datasets_unique.sdf']
2349,COc1c(C)cccc1C(=O)N[C@H]1C[C@@H]2CC[C@H](C1)[NH+]2Cc1ccccc1,O,0,0,8.92,['8.92'],['combined_training_datasets_unique.sdf']
2350,COc1c(C)cccc1C(=O)[O-],O,0,0,3.84,['3.84'],['combined_training_datasets_unique.sdf']
2351,COc1c(C)ncc(CO)c1C=O,O,0,0,4.75,['4.75'],['combined_training_datasets_unique.sdf']
2352,COc1c(CC=C(C)C)c(O)c(C(=O)[O-])c(CCc2ccccc2)c1CC=C(C)C,O,0,0,3.5,['3.5'],['combined_training_datasets_unique.sdf']
2353,COc1c(Cl)ccc2c1C(C)NC(=[NH+]CC(F)F)N2,O,0,0,8.9,['8.9'],['combined_training_datasets_unique.sdf']
2354,COc1c(O)ccc2c1C[N+]1(C)CCc3cc4c(cc3[C@@H]1C2)OCO4,O,0,0,8.45,['8.45'],['combined_training_datasets_unique.sdf']
2355,COc1c2ccccc2nc2ccccc12,O,0,0,7.0,['7.0'],['combined_training_datasets_unique.sdf']
2356,COc1c[nH+]ccc1N,O,0,0,9.03,['9.03'],['combined_training_datasets_unique.sdf']
2357,COc1cc(-c2cccc(Cl)c2)ncc1C1CCCN1C(=O)c1cncs1,O,0,0,5.0,['5.0'],['combined_training_datasets_unique.sdf']
2358,COc1cc(-n2cncc2-c2ccc3ccccc3c2)cc(OC)c1OC,O,0,0,5.58,['5.58'],['combined_training_datasets_unique.sdf']
2359,COc1cc(/C=C/C(O)=C/C(C)=O)ccc1O[C@@H]1O[C@H](CO)[C@@H](O)[C@H](O)[C@H]1O,O,0,0,8.74,['8.74'],['combined_training_datasets_unique.sdf']
2360,COc1cc(/C=C2\CCCN3C2=[NH+]OC3(C)c2ccc(F)cc2)ccc1-n1cnc(C)c1,O,0,0,6.7,['6.7'],['combined_training_datasets_unique.sdf']
2361,COc1cc(/C=C2\CCCN3C2=[NH+]O[C@@]3(CO)c2ccc(F)cc2)ccc1-n1cnc(C)c1,O,0,0,5.8,['5.8'],['combined_training_datasets_unique.sdf']
2362,COc1cc(=O)nc2sc(S(N)(=O)=O)nn12,O,0,0,7.1,['7.1'],['combined_training_datasets_unique.sdf']
2363,COc1cc(Br)cc(C(=O)N[C@H]2C[C@@H]3CC[C@H](C2)[NH+]3Cc2ccccc2)c1OC,O,0,0,8.84,['8.84'],['combined_training_datasets_unique.sdf']
2364,COc1cc(C#N)cc(C(=O)N[C@H]2C[C@@H]3CC[C@H](C2)[NH+]3Cc2ccccc2)c1OC,O,0,0,8.7,['8.7'],['combined_training_datasets_unique.sdf']
2365,COc1cc(C(=O)N[C@@H]2CCC[C@@H]3CC[NH+](C)C[C@@H]32)cc(OC)c1OC,O,0,0,9.02,['9.02'],['combined_training_datasets_unique.sdf']
2366,COc1cc(C(=O)N[C@@H]2CCC[C@@H]3CC[NH+](C)C[C@H]32)cc(OC)c1OC,O,0,0,8.75,['8.75'],['combined_training_datasets_unique.sdf']
2367,COc1cc(C(=O)O[C@@H]2CCC[C@@H]3CC[NH+](C)C[C@@H]32)cc(OC)c1OC,O,0,0,8.91,['8.91'],['combined_training_datasets_unique.sdf']
2368,COc1cc(C(=O)O[C@@H]2CCC[C@@H]3CC[NH+](C)C[C@H]32)cc(OC)c1OC,O,0,0,8.82,['8.82'],['combined_training_datasets_unique.sdf']
2369,COc1cc(C(=O)[O-])ccc1C,O,0,0,4.13,['4.13'],['combined_training_datasets_unique.sdf']
2370,COc1cc(C(C#N)N2CCCC2)cc(OC)c1OC,O,0,0,4.2,['4.2'],['combined_training_datasets_unique.sdf']
2371,COc1cc(C(C#N)N2CCCCC2)cc(OC)c1OC,O,0,0,3.9,['3.9'],['combined_training_datasets_unique.sdf']
2372,COc1cc(C(C#N)N2CC[NH+](C)CC2)cc(OC)c1OC,O,0,0,7.6,['7.6'],['combined_training_datasets_unique.sdf']
2373,COc1cc(C(C)=O)ccc1O,O,0,0,7.65,['7.65'],['combined_training_datasets_unique.sdf']
2374,COc1cc(C(F)(F)F)cc(SC)c1C(=O)N[C@@]1(c2ccccc2)CCC[NH+](C)C1,O,0,0,7.72,['7.72'],['combined_training_datasets_unique.sdf']
2375,COc1cc(C(F)(F)F)ccc1-c1cccc2cc(S(=O)(=O)Nc3cscn3)ccc12,O,0,0,7.2,['7.2'],['combined_training_datasets_unique.sdf']
2376,COc1cc(C(F)(F)F)ccc1-c1cccc2cc(S(=O)(=O)Nc3nccs3)ccc12,O,0,0,6.7,['6.7'],['combined_training_datasets_unique.sdf']
2377,COc1cc(C(F)(F)F)ccc1-c1cccc2cc(S(=O)(=O)Nc3ncns3)ccc12,O,0,0,3.7,['3.7'],['combined_training_datasets_unique.sdf']
2378,COc1cc(C(F)(F)F)ccc1-c1ncnc2cc(S(=O)(=O)Nc3nccs3)ccc12,O,0,0,6.5,['6.5'],['combined_training_datasets_unique.sdf']
2379,COc1cc(C)c(-c2ncc[nH]2)cc1-c1ccc(C#CCO)s1,O,0,0,6.6,['6.6'],['combined_training_datasets_unique.sdf']
2380,COc1cc(C)c(-c2noc(=O)[nH]2)cc1-c1ccc(C#CCO)s1,O,0,0,5.5,['5.5'],['combined_training_datasets_unique.sdf']
2381,COc1cc(C)c(C(=O)NS(=O)(=O)c2ccccc2)cc1-c1ccc(C#CCO)s1,O,0,0,3.8,['3.8'],['combined_training_datasets_unique.sdf']
2382,COc1cc(C)c(C(=O)NS(C)(=O)=O)cc1-c1ccc(C#CCO)s1,O,0,0,4.0,['4.0'],['combined_training_datasets_unique.sdf']
2383,COc1cc(C)c(C(=O)[O-])cc1-c1ccc(C#CCO)s1,O,0,0,4.2,['4.2'],['combined_training_datasets_unique.sdf']
2384,COc1cc(C)c(Nc2nc(Cl)cn([C@H](C)C3CC3)c2=O)c(C)n1,O,0,0,3.8,['3.8'],['combined_training_datasets_unique.sdf']
2385,COc1cc(C)c(S(=O)(=O)NC(C)=O)cc1-c1ccc(C#CCO)s1,O,0,0,4.8,['4.8'],['combined_training_datasets_unique.sdf']
2386,COc1cc(C)ccc1C(=O)[O-],O,0,0,4.38,['4.38'],['combined_training_datasets_unique.sdf']
2387,COc1cc(C)ccc1NC1=[NH+]CCN1,O,0,0,10.6,['10.6'],['combined_training_datasets_unique.sdf']
2388,COc1cc(C)nc(NN)n1,O,0,0,6.2,['6.2'],['combined_training_datasets_unique.sdf']
2389,COc1cc(C)ncn1,O,0,0,3.65,['3.65'],['combined_training_datasets_unique.sdf']
2390,COc1cc(C=O)ccc1O,O,0,0,7.38,['7.38'],['combined_training_datasets_unique.sdf']
2391,COc1cc(CO)ccc1O,O,0,0,9.79,['9.79'],['combined_training_datasets_unique.sdf']
2392,COc1cc(COc2cccc(NC(=O)C3CCN(c4cc[nH+]cc4)CC3)c2)cc(OC)c1,O,0,0,8.9,['8.9'],['combined_training_datasets_unique.sdf']
2393,COc1cc(Cc2cnc(N)nc2N)cc(OC)c1OC,O,0,0,7.1975,['7.1975'],['combined_training_datasets_unique.sdf']
2394,COc1cc(Cl)c(NC2=[NH+]CCN2)c(Cl)c1,O,0,0,8.57,['8.57'],['combined_training_datasets_unique.sdf']
2395,COc1cc(Cl)c(Nc2ccccc2CC(=O)[O-])c(Cl)c1,O,0,0,4.2,['4.2'],['combined_training_datasets_unique.sdf']
2396,COc1cc(Cl)ccc1OC(c1ccccc1)C1C[NH2+]CCO1,O,0,0,7.7,['7.7'],['combined_training_datasets_unique.sdf']
2397,COc1cc(F)cc(N2CC[NH+](CCCCNC(=O)c3ccc4nonc4c3)CC2)c1,O,0,0,7.34,['7.34'],['combined_training_datasets_unique.sdf']
2398,COc1cc(F)ccc1Cn1ccc2c3c(ncc21)C(=O)N(O)CC3,O,0,0,7.6,['7.6'],['combined_training_datasets_unique.sdf']
2399,COc1cc(N)c(C#N)c(N)[nH+]1,O,0,0,4.17,['4.17'],['combined_training_datasets_unique.sdf']
2400,COc1cc(N)c(Cl)cc1C(=O)NC1CC[NH+](CCCOc2ccc(F)cc2)CC1OC,O,0,0,7.8,['7.8'],['combined_training_datasets_unique.sdf']