,Solute SMILES,Solvent SMILES,Solute CAS,Solute IUPAC,pKa (avg),pKa (all),Source
5174,O=C([O-])c1cnccn1,O,0,0,2.8,['2.8'],['combined_training_datasets_unique.sdf']
5175,O=C([O-])c1cncs1,O,0,0,2.99,['2.99'],['combined_training_datasets_unique.sdf']
5176,O=C([O-])c1cnoc1,O,0,0,3.39,['3.39'],['combined_training_datasets_unique.sdf']
5177,O=C([O-])c1coc2ccccc12,O,0,0,4.18,['4.18'],['combined_training_datasets_unique.sdf']
5178,O=C([O-])c1coc2ccccc2c1=O,O,0,0,8.85,['8.85'],['combined_training_datasets_unique.sdf']
5179,O=C([O-])c1csc(Br)c1,O,0,0,3.7,['3.7'],['combined_training_datasets_unique.sdf']
5180,O=C([O-])c1csc(Br)n1,O,0,0,3.28,['3.28'],['combined_training_datasets_unique.sdf']
5181,O=C([O-])c1csc(Cl)c1,O,0,0,3.8,['3.8'],['combined_training_datasets_unique.sdf']
5182,O=C([O-])c1csc(Cl)n1,O,0,0,3.3,['3.3'],['combined_training_datasets_unique.sdf']
5183,O=C([O-])c1csc2ccccc12,O,0,0,4.24,['4.24'],['combined_training_datasets_unique.sdf']
5184,O=C([O-])c1cscn1,O,0,0,3.27,['3.27'],['combined_training_datasets_unique.sdf']
5185,O=C([O-])c1cssc1=S,O,0,0,2.8,['2.8'],['combined_training_datasets_unique.sdf']
5186,O=C([O-])c1nccc2ccccc12,O,0,0,4.97,['4.97'],['combined_training_datasets_unique.sdf']
5187,O=C([O-])c1nccs1,O,0,0,2.57,['2.57'],['combined_training_datasets_unique.sdf']
5188,O=C([O-])c1nsc2ccccc12,O,0,0,2.76,['2.76'],['combined_training_datasets_unique.sdf']
5189,O=C([S-])c1ccccc1,O,0,0,2.44,['2.44'],['combined_training_datasets_unique.sdf']
5190,O=C(c1cc2cc(OC3CC[NH+](C4CC4)CC3)ccc2[nH]1)N1CCOCC1,O,0,0,7.7,['7.7'],['combined_training_datasets_unique.sdf']
5191,O=C(c1cc2cc(OC3CC[NH+](C4CC4)CC3)ccc2n1CC(F)(F)F)N1CCOCC1,O,0,0,7.5,['7.5'],['combined_training_datasets_unique.sdf']
5192,O=C(c1cc2cc(OC3CC[NH+](C4CCC4)CC3)ccc2n1CC(F)(F)F)N1CCOCC1,O,0,0,9.1,['9.1'],['combined_training_datasets_unique.sdf']
5193,O=C(c1cc2cc(OC3CC[NH+](C4COC4)CC3)ccc2n1CC(F)(F)F)N1CCOCC1,O,0,0,6.4,['6.4'],['combined_training_datasets_unique.sdf']
5194,O=C(c1cc2cc(OCCC[NH+]3CCCCC3)ccc2[nH]1)N1CCOCC1,O,0,0,10.0,['10.0'],['combined_training_datasets_unique.sdf']
5195,O=C(c1ccc(C(F)(F)F)cc1)N1CCC(=Cc2ccc(C3=NCCO3)cc2)CC1,O,0,0,4.7,['4.7'],['combined_training_datasets_unique.sdf']
5196,O=C(c1ccc(Cl)cc1)c1ccc(OC2C[NH+]3CCC2CC3)cc1,O,0,0,9.1,['9.1'],['combined_training_datasets_unique.sdf']
5197,O=C(c1ccc(Cl)cc1)c1ccc2n1CCC2C(=O)[O-],O,0,0,3.4,['3.4'],['combined_training_datasets_unique.sdf']
5198,O=C(c1ccc(Cl)cc1)c1ccn[nH]1,O,0,0,11.87,['11.87'],['combined_training_datasets_unique.sdf']
5199,O=C(c1ccc(Cl)cc1NS(=O)(=O)c1cccc2nonc12)N1CCCCC1,O,0,0,6.18,['6.18'],['combined_training_datasets_unique.sdf']
5200,O=C(c1ccc(Cl)cc1NS(=O)(=O)c1cccc2nsnc12)N1CCCCC1,O,0,0,5.47,['5.47'],['combined_training_datasets_unique.sdf']
5201,O=C(c1ccc(F)cc1)c1ccc2n1CCC2C(=O)[O-],O,0,0,3.51,['3.51'],['combined_training_datasets_unique.sdf']
5202,O=C(c1ccc2c(c1)cc(C(=O)N1CCOCC1)n2CC(F)(F)F)N1CC[NH+](C2CCC2)CC1,O,0,0,6.8,['6.8'],['combined_training_datasets_unique.sdf']
5203,O=C(c1ccc2cc(OCCC[NH+]3CCCCC3)ccc2c1)N1CCC(CO)CC1,O,0,0,9.6,['9.6'],['combined_training_datasets_unique.sdf']
5204,O=C(c1ccc2cc(OCCC[NH+]3CCCCC3)ccc2n1)N1CCC1,O,0,0,9.4,['9.4'],['combined_training_datasets_unique.sdf']
5205,O=C(c1ccc2ccccc2c1)c1ccc2n1CCC2C(=O)[O-],O,0,0,3.44,['3.44'],['combined_training_datasets_unique.sdf']
5206,O=C(c1ccc2n1CCC2C(=O)[O-])C1CCC1,O,0,0,3.54,['3.54'],['combined_training_datasets_unique.sdf']
5207,O=C(c1cccc(Cl)c1)c1ccc2n1CCC2C(=O)[O-],O,0,0,3.44,['3.44'],['combined_training_datasets_unique.sdf']
5208,O=C(c1cccc(F)c1)c1ccc2n1CCC2C(=O)[O-],O,0,0,3.46,['3.46'],['combined_training_datasets_unique.sdf']
5209,O=C(c1ccccc1)N(O)c1ccccc1,O,0,0,7.87,['7.87'],['combined_training_datasets_unique.sdf']
5210,O=C(c1ccccc1)N1CC[NH2+]CC1,O,0,0,7.79,['7.79'],['combined_training_datasets_unique.sdf']
5211,O=C(c1ccccc1)c1ccc(O)[n+]([O-])c1,O,0,0,5.13,['5.13'],['combined_training_datasets_unique.sdf']
5212,O=C(c1ccccc1)c1ccc(O)cc1,O,0,0,8.01,['8.01'],['combined_training_datasets_unique.sdf']
5213,O=C(c1ccccc1)c1ccc2n1CCC2C(=O)[O-],O,0,0,3.496667,['3.496667'],['combined_training_datasets_unique.sdf']
5214,O=C(c1ccccc1)c1cccc(O)c1,O,0,0,9.0,['9.0'],['combined_training_datasets_unique.sdf']
5215,O=C(c1ccccc1)c1ccccc1O,O,0,0,9.3,['9.3'],['combined_training_datasets_unique.sdf']
5216,O=C(c1ccccc1)c1ccn[nH]1,O,0,0,11.97,['11.97'],['combined_training_datasets_unique.sdf']
5217,O=C(c1ccccc1C(F)(F)F)N(CC1CCC1)[C@H]1CC[NH2+]C1,O,0,0,9.5,['9.5'],['combined_training_datasets_unique.sdf']
5218,O=C(c1ccccc1Cl)c1ccc2n1CCC2C(=O)[O-],O,0,0,4.33,['4.33'],['combined_training_datasets_unique.sdf']
5219,O=C(c1cccs1)N1CCCC1c1ccc(-c2cccc(Cl)c2)nc1,O,0,0,3.6,['3.6'],['combined_training_datasets_unique.sdf']
5220,O=C(c1cccs1)N1CC[NH+](CCOc2ccc(Cl)cc2)CC1,O,0,0,6.35,['6.35'],['combined_training_datasets_unique.sdf']
5221,O=C(c1cccs1)N1CC[NH+](CCOc2ccc(Cl)cc2Cl)CC1,O,0,0,5.23,['5.23'],['combined_training_datasets_unique.sdf']
5222,O=C(c1cnccn1)N1CCCC1c1ccc(-c2cccc(Cl)c2)nc1,O,0,0,3.4,['3.4'],['combined_training_datasets_unique.sdf']
5223,O=C(c1cncs1)N1CCCC1c1ccc(-c2cccc(Cl)c2)nc1,O,0,0,3.6,['3.6'],['combined_training_datasets_unique.sdf']
5224,O=C(c1nnc(-c2ccccc2)o1)N1CC(Oc2ccc(C[NH+]3CC4(CCCO4)C3)cc2)C1,O,0,0,8.4,['8.4'],['combined_training_datasets_unique.sdf']
5225,O=C(c1nnc(-c2ccccc2)o1)N1CC(Oc2ccc(C[NH+]3CC4(CCOC4)C3)cc2)C1,O,0,0,8.6,['8.6'],['combined_training_datasets_unique.sdf']
5226,O=C(c1nnc(-c2ccccc2)o1)N1CC(Oc2ccc(C[NH+]3CC4(COC4)C3)cc2)C1,O,0,0,8.0,['8.0'],['combined_training_datasets_unique.sdf']
5227,O=C(c1nnc(-c2ccccc2)o1)N1CCC(Oc2ccc(C[NH+]3CCC(O)C3)cc2)CC1,O,0,0,8.9,['8.9'],['combined_training_datasets_unique.sdf']
5228,O=C1/C(=C/c2ccccc2)CN(C(=O)c2ccc(OCC[NH+]3CCOCC3)cc2)C/C1=C\c1ccccc1,O,0,0,8.5,['8.5'],['combined_training_datasets_unique.sdf']
5229,O=C1C(=NS(=O)(=O)c2ccccc2)C(c2ccc(Cl)cc2)C(=O)c2ccccc21,O,0,0,5.0,['5.0'],['combined_training_datasets_unique.sdf']
5230,O=C1C(=NS(=O)(=O)c2ccccc2)C(c2cccc(Cl)c2)C(=O)c2ccccc21,O,0,0,4.5,['4.5'],['combined_training_datasets_unique.sdf']
5231,O=C1C(=NS(=O)(=O)c2ccccc2)C(c2ccccc2Cl)C(=O)c2ccccc21,O,0,0,4.9,['4.9'],['combined_training_datasets_unique.sdf']
5232,O=C1C(=NS(=O)(=O)c2ccccc2)C(c2ccco2)C(=O)c2ccccc21,O,0,0,5.1,['5.1'],['combined_training_datasets_unique.sdf']
5233,O=C1C(=NS(=O)(=O)c2ccccc2)C(c2ccoc2)C(=O)c2ccccc21,O,0,0,5.0,['5.0'],['combined_training_datasets_unique.sdf']
5234,O=C1C(=O)c2ccccc2C(=O)C1=C([O-])c1ccccc1,O,0,0,2.17,['2.17'],['combined_training_datasets_unique.sdf']
5235,O=C1C(=O)c2ccccc2C([O-])=C1/C=C/c1ccccc1,O,0,0,4.44,['4.44'],['combined_training_datasets_unique.sdf']
5236,O=C1C(=O)c2ccccc2C([O-])=C1Cc1ccccc1,O,0,0,4.9,['4.9'],['combined_training_datasets_unique.sdf']
5237,O=C1C(=O)c2ccccc2C([O-])=C1c1ccccc1,O,0,0,4.35,['4.35'],['combined_training_datasets_unique.sdf']
5238,O=C1C(Cc2ccccc2)=C([O-])c2ccccc21,O,0,0,5.9,['5.9'],['combined_training_datasets_unique.sdf']
5239,O=C1C=C([O-])C(C2CCCCC2)CC1,O,0,0,5.5,['5.5'],['combined_training_datasets_unique.sdf']
5240,O=C1C=C([O-])C(Cc2ccc(Br)cc2)C1,O,0,0,3.96,['3.96'],['combined_training_datasets_unique.sdf']
5241,O=C1C=C([O-])C(Cc2ccccc2)C1,O,0,0,4.01,['4.01'],['combined_training_datasets_unique.sdf']
5242,O=C1C=C([O-])CC1,O,0,0,4.35,['4.35'],['combined_training_datasets_unique.sdf']
5243,O=C1C=C([O-])CC2(CCCCC2)C1,O,0,0,5.2,['5.2'],['combined_training_datasets_unique.sdf']
5244,O=C1C=C([O-])CCC1,O,0,0,5.26,['5.26'],['combined_training_datasets_unique.sdf']
5245,O=C1C=C([O-])CSC1,O,0,0,4.34,['4.34'],['combined_training_datasets_unique.sdf']
5246,O=C1C=C([O-])c2ccccc2C1=O,O,0,0,3.19,['3.19'],['combined_training_datasets_unique.sdf']
5247,O=C1C=CC(=O)c2c([O-])cccc21,O,0,0,8.7,['8.7'],['combined_training_datasets_unique.sdf']
5248,O=C1C=C[NH+]2C[C@@H]3C[C@@H](C[NH+]4CCCC[C@H]34)[C@@H]2C1,O,0,0,9.25,['9.25'],['combined_training_datasets_unique.sdf']
5249,O=C1CC(c2ccccc2)CC([O-])=C1Nc1ccccc1Cl,O,0,0,4.6,['4.6'],['combined_training_datasets_unique.sdf']
5250,O=C1CC(c2ccccc2)CC([O-])=C1Oc1ccccc1Cl,O,0,0,3.7,['3.7'],['combined_training_datasets_unique.sdf']
5251,O=C1CC(c2ccccc2)CC([O-])=C1Sc1ccccc1Cl,O,0,0,3.0,['3.0'],['combined_training_datasets_unique.sdf']
5252,O=C1CC(c2ccccc2)NC(=O)N1,O,0,0,11.22,['11.22'],['combined_training_datasets_unique.sdf']
5253,O=C1CC2OCC=C3C4CC5[NH+](CCC56c5ccccc5N1C6C24)[C@H]3S(=O)(=O)[O-],O,0,0,3.2,['3.2'],['combined_training_datasets_unique.sdf']
5254,O=C1CCC(=O)N1,O,0,0,9.59,['9.59'],['combined_training_datasets_unique.sdf']
5255,O=C1CCC(C(=O)[O-])N1,O,0,0,3.25,['3.25'],['combined_training_datasets_unique.sdf']
5256,O=C1CCC([O-])=C1Cc1ccc(Br)cc1,O,0,0,4.2,['4.2'],['combined_training_datasets_unique.sdf']
5257,O=C1CCC([O-])=C1Cc1ccccc1,O,0,0,4.44,['4.44'],['combined_training_datasets_unique.sdf']
5258,O=C1CCC([O-])=C1O,O,0,0,4.8,['4.8'],['combined_training_datasets_unique.sdf']
5259,O=C1CCCC(=O)N1,O,0,0,11.43,['11.43'],['combined_training_datasets_unique.sdf']
5260,O=C1CCCC(=O)N1O,O,0,0,7.6,['7.6'],['combined_training_datasets_unique.sdf']
5261,O=C1CCCC1=C[O-],O,0,0,5.83,['5.83'],['combined_training_datasets_unique.sdf']
5262,O=C1CCCC2CCCC([O-])=C12,O,0,0,11.13,['11.13'],['combined_training_datasets_unique.sdf']
5263,O=C1CCCCC1=C[O-],O,0,0,6.35,['6.35'],['combined_training_datasets_unique.sdf']
5264,O=C1CCC[C@H]2[C@H]3C[C@@H](CN12)[C@@H]1CCCC[NH+]1C3,O,0,0,9.4,['9.4'],['combined_training_datasets_unique.sdf']
5265,O=C1CCC[C@H]2[C@H]3C[C@@H](CN12)[C@H]1CCCC[NH+]1C3,O,0,0,9.2,['9.2'],['combined_training_datasets_unique.sdf']
5266,O=C1CCC[NH+](Cc2ccc3c(c2)OCO3)C1,O,0,0,7.6,['7.6'],['combined_training_datasets_unique.sdf']
5267,O=C1CCCc2nc3c(ccn4ccnc34)cc21,O,0,0,2.0,['2.0'],['combined_training_datasets_unique.sdf']
5268,O=C1CCON1,O,0,0,6.7,['6.7'],['combined_training_datasets_unique.sdf']
5269,O=C1CC[C@@H](C(=O)[O-])N1,O,0,0,3.4,['3.4'],['combined_training_datasets_unique.sdf']
5270,O=C1CC[C@H]2N1CC[C@H]1c3ccccc3CC[NH+]12,O,0,0,4.89,['4.89'],['combined_training_datasets_unique.sdf']
5271,O=C1CC[NH+](Cc2ccc3c(c2)OCO3)C1,O,0,0,6.1,['6.1'],['combined_training_datasets_unique.sdf']
5272,O=C1CC[NH+](Cc2ccc3c(c2)OCO3)CC1,O,0,0,7.5,['7.5'],['combined_training_datasets_unique.sdf']
5273,O=C1CCc2ccccc2N1CCC[NH+]1CCC(c2ccc3[nH]ccc3c2)CC1,O,0,0,9.0,['9.0'],['combined_training_datasets_unique.sdf']
5274,O=C1CCc2ccccc2N1CCC[NH+]1CCC(n2c(=O)[nH]c3ccccc32)CC1,O,0,0,7.6,['7.6'],['combined_training_datasets_unique.sdf']
5275,O=C1CN(C(=O)c2ccccc2)C(=S)N1,O,0,0,6.5,['6.5'],['combined_training_datasets_unique.sdf']
5276,O=C1CNC(=O)N1,O,0,0,9.12,['9.12'],['combined_training_datasets_unique.sdf']
5277,O=C1CS(=O)(=O)c2ccccc21,O,0,0,7.65,['7.65'],['combined_training_datasets_unique.sdf']
5278,O=C1CSC(=O)[N-]1,O,0,0,6.68,['6.68'],['combined_training_datasets_unique.sdf']
5279,O=C1CSC(=S)[N-]1,O,0,0,6.48,['6.48'],['combined_training_datasets_unique.sdf']
5280,O=C1C[C@@H]2OCC=C3C[NH+]4CC[C@@]56c7ccccc7N1[C@H]5C2[C@@]3(S(=O)(=O)[O-])C[C@H]46,O,0,0,7.53,['7.53'],['combined_training_datasets_unique.sdf']
5281,O=C1C[C@H]2OCC(S(=O)(=O)[O-])=C3C[NH+]4CC[C@@]56c7ccccc7N1[C@@H]5[C@@H]2[C@@H]3C[C@@H]46,O,0,0,7.54,['7.54'],['combined_training_datasets_unique.sdf']
5282,O=C1C[C@H]2OCC=C3C[NH+]4CC[C@@]56c7ccccc7N1[C@@H]5[C@@H]2[C@@H]3C[C@@H]46,O,0,0,8.18,['8.18'],['combined_training_datasets_unique.sdf']
5283,O=C1C[NH+]2CCC1CC2,O,0,0,7.27,['7.27'],['combined_training_datasets_unique.sdf']
5284,O=C1Cc2c1ccc(O)c2Br,O,0,0,5.75,['5.75'],['combined_training_datasets_unique.sdf']
5285,O=C1Cc2cc(O)ccc21,O,0,0,7.24,['7.24'],['combined_training_datasets_unique.sdf']
5286,O=C1Cn2c(cc3ccccc32)C(=O)N1,O,0,0,9.3,['9.3'],['combined_training_datasets_unique.sdf']
5287,O=C1N=C(Cc2ccccc2)C(=O)N1,O,0,0,8.6,['8.6'],['combined_training_datasets_unique.sdf']
5288,O=C1NC(=O)C(Cc2ccccc2)N1,O,0,0,9.03,['9.03'],['combined_training_datasets_unique.sdf']
5289,O=C1NC(=O)C(N2C(=O)c3cccc4cccc(c34)C2=O)N1,O,0,0,9.5,['9.5'],['combined_training_datasets_unique.sdf']
5290,O=C1NC(=O)C(c2ccccc2)(c2ccccc2)N1,O,0,0,8.1,['8.1'],['combined_training_datasets_unique.sdf']
5291,O=C1NC(=O)C2(CCOc3ccc(F)cc32)N1,O,0,0,8.3,['8.3'],['combined_training_datasets_unique.sdf']
5292,O=C1NC(=O)C2CCC12,O,0,0,9.63,['9.63'],['combined_training_datasets_unique.sdf']
5293,O=C1NC(=O)[C@@H]2CCCC[C@H]12,O,0,0,9.72,['9.72'],['combined_training_datasets_unique.sdf']
5294,O=C1NC(=O)[C@@H]2CCC[C@H]12,O,0,0,9.53,['9.53'],['combined_training_datasets_unique.sdf']
5295,O=C1NC(=O)[C@@]2(CCOc3ccc(F)cc32)N1,O,0,0,8.183333,['8.183333'],['combined_training_datasets_unique.sdf']
5296,O=C1NC(=O)c2cc(Cl)ccc21,O,0,0,9.48,['9.48'],['combined_training_datasets_unique.sdf']
5297,O=C1NC(=O)c2ccccc21,O,0,0,9.91,['9.91'],['combined_training_datasets_unique.sdf']
5298,O=C1NC(=S)NC12CCCCC2,O,0,0,8.79,['8.79'],['combined_training_datasets_unique.sdf']
5299,O=C1NC(c2ccccc2)CC([O-])=C1Nc1ccccc1Cl,O,0,0,6.0,['6.0'],['combined_training_datasets_unique.sdf']
5300,O=C1NC(c2ccccc2)CC([O-])=C1Sc1ccccc1Cl,O,0,0,4.1,['4.1'],['combined_training_datasets_unique.sdf']
5301,O=C1NCC(c2ccc(F)cc2)C12CC[NH+](C1(c3ccc(F)cc3)CCCCC1)CC2,O,0,0,8.75,['8.75'],['combined_training_datasets_unique.sdf']
5302,O=C1NCC(c2ccc(F)cc2)C12CC[NH+](C1CCCCC1(O)c1ccccc1)CC2,O,0,0,6.89,['6.89'],['combined_training_datasets_unique.sdf']
5303,O=C1NCC(c2ccccc2)C12CC[NH+](C1(c3ccccc3)CCCOC1)CC2,O,0,0,7.1,['7.1'],['combined_training_datasets_unique.sdf']
5304,O=C1NCC(c2ccccc2)C12CC[NH+](C1(c3ccccc3)CCOCC1)CC2,O,0,0,7.71,['7.71'],['combined_training_datasets_unique.sdf']
5305,O=C1NCC(c2ccccc2)C12CC[NH+](C1CCCCC1(O)c1ccc(F)cc1)CC2,O,0,0,8.54,['8.54'],['combined_training_datasets_unique.sdf']
5306,O=C1NC[C@@H](c2ccccc2)C12CC[NH+](C1CCCCC1c1ccccc1)CC2,O,0,0,8.85,['8.85'],['combined_training_datasets_unique.sdf']
5307,O=C1Nc2ccc(Cl)cc2C(c2ccccc2Cl)=NC1O,O,0,0,11.5,['11.5'],['combined_training_datasets_unique.sdf']
5308,O=C1Nc2ccccc2C1=O,O,0,0,11.9,['11.9'],['combined_training_datasets_unique.sdf']
5309,O=C1OC(C(O)CO)C(OCCCCC(CO[N+](=O)[O-])O[N+](=O)[O-])=C1O,O,0,0,7.64,['7.64'],['combined_training_datasets_unique.sdf']
5310,O=C1OC(C(O)CO)C(OCCCCCCO[N+](=O)[O-])=C1O,O,0,0,7.6,['7.6'],['combined_training_datasets_unique.sdf']
5311,O=C1OC(C(O)CO)C(OCCCO[N+](=O)[O-])=C1O,O,0,0,7.55,['7.55'],['combined_training_datasets_unique.sdf']
5312,O=C1OC(C(O)CO)C(OCCCOc2no[n+]([O-])c2-c2ccccc2)=C1O,O,0,0,7.6,['7.6'],['combined_training_datasets_unique.sdf']
5313,O=C1OC(C(O)CO)C(OCCCOc2no[n+]([O-])c2S(=O)(=O)c2ccccc2)=C1O,O,0,0,7.62,['7.62'],['combined_training_datasets_unique.sdf']
5314,O=C1OC(C(O)CO)C([O-])=C1OCCCCCCO[N+](=O)[O-],O,0,0,3.56,['3.56'],['combined_training_datasets_unique.sdf']
5315,O=C1OC(C(O)CO)C([O-])=C1OCCCO[N+](=O)[O-],O,0,0,3.19,['3.19'],['combined_training_datasets_unique.sdf']
5316,O=C1OC(C(O)CO)C([O-])=C1OCCCOc1no[n+]([O-])c1-c1ccccc1,O,0,0,3.44,['3.44'],['combined_training_datasets_unique.sdf']
5317,O=C1OC(c2ccccc2)CC([O-])=C1Oc1ccccc1Cl,O,0,0,3.4,['3.4'],['combined_training_datasets_unique.sdf']
5318,O=C1OC2C3CC4C2C4(C(=O)[O-])C13Br,O,0,0,3.5,['3.5'],['combined_training_datasets_unique.sdf']
5319,O=C1[C@@H]2C[C@@H](C[NH+]3CCCC[C@@H]23)[C@H]2CCCCN12,O,0,0,7.7,['7.7'],['combined_training_datasets_unique.sdf']
5320,O=C1[C@H]2C[C@H](C[NH+]3CCCC=C23)[C@@H]2CCCCN12,O,0,0,9.7,['9.7'],['combined_training_datasets_unique.sdf']
5321,O=C1[C@H]2C[C@H](C[NH+]3CCCC[C@@H]23)C2=CCCCN12,O,0,0,7.7,['7.7'],['combined_training_datasets_unique.sdf']
5322,O=C1[N-]C(=O)/C(=C/c2ccccc2)S1,O,0,0,6.14,['6.14'],['combined_training_datasets_unique.sdf']
5323,O=C1[N-]C(=O)/C(=C\c2ccc(-c3ccc(Cl)c(Cl)c3)o2)S1,O,0,0,7.9,['7.9'],['combined_training_datasets_unique.sdf']
5324,O=C1[N-]C(=O)C(Cc2ccccc2)S1,O,0,0,6.19,['6.19'],['combined_training_datasets_unique.sdf']
5325,O=C1[N-]C(=O)[C@@]2(CCOc3ccc(Cl)cc32)O1,O,0,0,5.6,['5.6'],['combined_training_datasets_unique.sdf']
5326,O=C1c2ccccc2C(=O)N1O,O,0,0,6.13,['6.13'],['combined_training_datasets_unique.sdf']
5327,O=C1c2ccccc2CN1C1CC2CCC(C1)[NH+]2Cc1ccccc1,O,0,0,8.71,['8.71'],['combined_training_datasets_unique.sdf']
5328,O=CC1c2ccccc2-c2ccccc21,O,0,0,6.8,['6.8'],['combined_training_datasets_unique.sdf']
5329,O=CCCCC(=O)[O-],O,0,0,5.02,['5.02'],['combined_training_datasets_unique.sdf']
5330,O=CN(O)c1ccccc1,O,0,0,7.92,['7.92'],['combined_training_datasets_unique.sdf']
5331,O=CN1CC[NH2+]CC1,O,0,0,7.98,['7.98'],['combined_training_datasets_unique.sdf']
5332,O=CNO,O,0,0,8.77,['8.77'],['combined_training_datasets_unique.sdf']
5333,O=COO,O,0,0,7.1,['7.1'],['combined_training_datasets_unique.sdf']
5334,O=C[O-],O,0,0,3.69,['3.69'],['combined_training_datasets_unique.sdf']
5335,O=Cc1c(O)cccc1Cl,O,0,0,8.26,['8.26'],['combined_training_datasets_unique.sdf']
5336,O=Cc1c2ccccc2c(O)c2ccccc12,O,0,0,6.0,['6.0'],['combined_training_datasets_unique.sdf']
5337,O=Cc1cc(-c2ccccc2)nnc1NCC[NH+]1CCOCC1,O,0,0,4.745,['4.745'],['combined_training_datasets_unique.sdf']
5338,O=Cc1cc(Br)ccc1O,O,0,0,7.4,['7.4'],['combined_training_datasets_unique.sdf']
5339,O=Cc1cc(Cl)ccc1O,O,0,0,7.4,['7.4'],['combined_training_datasets_unique.sdf']
5340,O=Cc1ccc(O)c2ncccc12,O,0,0,5.715,['5.715'],['combined_training_datasets_unique.sdf']
5341,O=Cc1ccc(O)cc1,O,0,0,7.565,['7.565'],['combined_training_datasets_unique.sdf']
5342,O=Cc1ccc(O)cc1Cl,O,0,0,6.6,['6.6'],['combined_training_datasets_unique.sdf']
5343,O=Cc1cccc(C2C(=O)c3ccccc3C(=O)C2=NC(=O)Cc2ccccc2)c1,O,0,0,11.4,['11.4'],['combined_training_datasets_unique.sdf']
5344,O=Cc1cccc(C2C(=O)c3ccccc3C(=O)C2=NC(=O)c2ccccc2)c1,O,0,0,10.9,['10.9'],['combined_training_datasets_unique.sdf']
5345,O=Cc1cccc(C2C(=O)c3ccccc3C(=O)C2=NS(=O)(=O)c2ccccc2)c1,O,0,0,5.0,['5.0'],['combined_training_datasets_unique.sdf']
5346,O=Cc1cccc(Cl)c1O,O,0,0,6.61,['6.61'],['combined_training_datasets_unique.sdf']
5347,O=Cc1cccc(O)c1,O,0,0,8.86,['8.86'],['combined_training_datasets_unique.sdf']
5348,O=Cc1ccccc1C(=O)[O-],O,0,0,4.56,['4.56'],['combined_training_datasets_unique.sdf']
5349,O=Cc1ccccc1O,O,0,0,8.33,['8.33'],['combined_training_datasets_unique.sdf']
5350,O=Cc1cccnc1,O,0,0,3.73,['3.73'],['combined_training_datasets_unique.sdf']
5351,O=Cc1cccnc1C(=O)[O-],O,0,0,3.7,['3.7'],['combined_training_datasets_unique.sdf']
5352,O=Cc1ccnc2ccccc12,O,0,0,4.25,['4.25'],['combined_training_datasets_unique.sdf']
5353,O=Cc1ccncc1,O,0,0,4.63,['4.63'],['combined_training_datasets_unique.sdf']
5354,O=Cc1ncccc1O,O,0,0,6.95,['6.95'],['combined_training_datasets_unique.sdf']
5355,O=NC(=O)CCc1ccc(CN(CCc2c[nH]c3ccccc23)CC(F)(F)F)cc1,O,0,0,3.2,['3.2'],['combined_training_datasets_unique.sdf']
5356,O=NC(=O)CCc1ccc(CN(CCc2c[nH]c3ccccc23)CCC(F)(F)F)cc1,O,0,0,4.75,['4.75'],['combined_training_datasets_unique.sdf']
5357,O=NC(=O)CCc1ccc(C[NH+](CCO)CCc2c[nH]c3ccccc23)cc1,O,0,0,7.5,['7.5'],['combined_training_datasets_unique.sdf']
5358,O=NC(=O)CCc1ccc(C[NH+]2CCCC(c3c(-c4ccccc4)[nH]c4ccccc34)C2)c(F)c1,O,0,0,7.4,['7.4'],['combined_training_datasets_unique.sdf']
5359,O=NC(=O)CCc1ccc(C[NH+]2CCCC(c3c(-c4ccccc4)[nH]c4ccccc34)C2)cc1,O,0,0,7.7,['7.7'],['combined_training_datasets_unique.sdf']
5360,O=NC(=O)CCc1ccc(C[NH+]2CCCC(c3c[nH]c4ccccc34)C2)cc1,O,0,0,7.3,['7.3'],['combined_training_datasets_unique.sdf']
5361,O=NC(=O)CCc1ccc(C[NH2+]CCc2c[nH]c3ccccc23)cc1,O,0,0,7.65,['7.65'],['combined_training_datasets_unique.sdf']
5362,O=NC(c1ccc(Sc2cc(F)cc(C3CCOCC3)c2)cc1)C(F)(F)F,O,0,0,7.68,['7.68'],['combined_training_datasets_unique.sdf']
5363,O=NC1CCC(N=O)C1=O,O,0,0,7.95,['7.95'],['combined_training_datasets_unique.sdf']
5364,O=NCC(=O)CCl,O,0,0,7.9,['7.9'],['combined_training_datasets_unique.sdf']
5365,O=NCC(=O)CN=O,O,0,0,7.65,['7.65'],['combined_training_datasets_unique.sdf']
5366,O=NCC(=O)NCC[NH+]1CCOCC1,O,0,0,6.19,['6.19'],['combined_training_datasets_unique.sdf']
5367,O=NCC(=O)c1ccc(OCC2CC[NH+](Cc3ccccc3)CC2)nc1,O,0,0,7.8,['7.8'],['combined_training_datasets_unique.sdf']
5368,O=NCC(F)(F)F,O,0,0,8.9,['8.9'],['combined_training_datasets_unique.sdf']
5369,O=NCc1ccc(O)cc1,O,0,0,10.375,['10.375'],['combined_training_datasets_unique.sdf']
5370,O=NCc1ccc(OCC2CC[NH+](Cc3ccccc3)CC2)nc1,O,0,0,11.2,['11.2'],['combined_training_datasets_unique.sdf']