,Solute SMILES,Solvent SMILES,Solute CAS,Solute IUPAC,pKa (avg),pKa (all),Source
410,CC(=O)Oc1cc(C(C)C)c(OCC[NH+](C)C)cc1C,O,0,0,8.72,['8.72'],['combined_training_datasets_unique.sdf']
411,CC(=O)Oc1ccc2c3c1O[C@H]1[C@@H](OC(C)=O)C=C[C@H]4[C@@H](C2)[NH+](C)CC[C@]314,O,0,0,7.95,['7.95'],['combined_training_datasets_unique.sdf']
412,CC(=O)Oc1cccc2cccc(O)c12,O,0,0,9.69,['9.69'],['combined_training_datasets_unique.sdf']
413,CC(=O)Oc1cccc2cccnc12,O,0,0,3.3,['3.3'],['combined_training_datasets_unique.sdf']
414,CC(=O)Oc1ccccc1C(=O)NCC(=O)[O-],O,0,0,3.77,['3.77'],['combined_training_datasets_unique.sdf']
415,CC(=O)Oc1ccccc1C(=O)[O-],O,0,0,3.5,['3.5'],['combined_training_datasets_unique.sdf']
416,CC(=O)SCC[NH+](C)C,O,0,0,8.27,['8.27'],['combined_training_datasets_unique.sdf']
417,CC(=O)Sc1ccc(O)cc1,O,0,0,8.88,['8.88'],['combined_training_datasets_unique.sdf']
418,CC(=O)[C@@H]1C[C@@H]1C(=O)[O-],O,0,0,4.19,['4.19'],['combined_training_datasets_unique.sdf']
419,CC(=O)[C@@H]1C[C@H](C(=O)[O-])C1(C)C,O,0,0,4.63,['4.63'],['combined_training_datasets_unique.sdf']
420,CC(=O)[C@H]1CC=CC[C@@H]1C(=O)[O-],O,0,0,4.4,['4.4'],['combined_training_datasets_unique.sdf']
421,CC(=O)[C@H]1C[C@@H](CC(=O)[O-])C1(C)C,O,0,0,4.82,['4.82'],['combined_training_datasets_unique.sdf']
422,CC(=O)[NH+]=C(N(C)C)N(C)C,O,0,0,7.5,['7.5'],['combined_training_datasets_unique.sdf']
423,CC(=O)c1cc(C(=O)C(C)(C)C)n[nH]1,O,0,0,9.7,['9.7'],['combined_training_datasets_unique.sdf']
424,CC(=O)c1cc(C(=O)c2ccccc2)[nH]n1,O,0,0,9.01,['9.01'],['combined_training_datasets_unique.sdf']
425,CC(=O)c1cc(C(C)=O)[nH]n1,O,0,0,8.98,['8.98'],['combined_training_datasets_unique.sdf']
426,CC(=O)c1cc(C)c(C)cc1O,O,0,0,11.56,['11.56'],['combined_training_datasets_unique.sdf']
427,CC(=O)c1ccc(/N=N/c2c(N)n[nH]c2N)cc1,O,0,0,3.32,['3.32'],['combined_training_datasets_unique.sdf']
428,CC(=O)c1ccc(C(=O)[O-])cc1,O,0,0,3.72,['3.72'],['combined_training_datasets_unique.sdf']
429,CC(=O)c1ccc(C(=O)[O-])s1,O,0,0,3.0,['3.0'],['combined_training_datasets_unique.sdf']
430,CC(=O)c1ccc(CC(=O)[O-])s1,O,0,0,3.8,['3.8'],['combined_training_datasets_unique.sdf']
431,CC(=O)c1ccc(Cc2c3ccccc3nc3ccccc23)cc1,O,0,0,6.12,['6.12'],['combined_training_datasets_unique.sdf']
432,CC(=O)c1ccc(N)cc1,O,0,0,2.385,['2.385'],['combined_training_datasets_unique.sdf']
433,CC(=O)c1ccc(Nc2c3ccccc3nc3ccccc23)cc1,O,0,0,6.12,['6.12'],['combined_training_datasets_unique.sdf']
434,CC(=O)c1ccc(O)c2ncccc12,O,0,0,5.86,['5.86'],['combined_training_datasets_unique.sdf']
435,CC(=O)c1ccc(O)cc1,O,0,0,7.9,['7.9'],['combined_training_datasets_unique.sdf']
436,CC(=O)c1ccc([N-]S(=O)(=O)c2ccccc2)cc1,O,0,0,6.94,['6.94'],['combined_training_datasets_unique.sdf']
437,CC(=O)c1ccc([S-])cc1,O,0,0,5.33,['5.33'],['combined_training_datasets_unique.sdf']
438,CC(=O)c1cccc(C(=O)[O-])c1,O,0,0,3.84,['3.84'],['combined_training_datasets_unique.sdf']
439,CC(=O)c1cccc(N)c1,O,0,0,3.61,['3.61'],['combined_training_datasets_unique.sdf']
440,CC(=O)c1cccc(NS(=O)(=O)C(F)(F)F)c1,O,0,0,3.75,['3.75'],['combined_training_datasets_unique.sdf']
441,CC(=O)c1cccc(O)c1,O,0,0,9.12,['9.12'],['combined_training_datasets_unique.sdf']
442,CC(=O)c1ccccc1C(=O)[O-],O,0,0,4.15,['4.15'],['combined_training_datasets_unique.sdf']
443,CC(=O)c1ccccc1N,O,0,0,2.31,['2.31'],['combined_training_datasets_unique.sdf']
444,CC(=O)c1ccccc1N=NC(C(=O)c1ccccc1)=C(O)c1ccccc1,O,0,0,9.2,['9.2'],['combined_training_datasets_unique.sdf']
445,CC(=O)c1ccccc1O,O,0,0,10.37,['10.37'],['combined_training_datasets_unique.sdf']
446,CC(=O)c1cccnc1,O,0,0,3.32,['3.32'],['combined_training_datasets_unique.sdf']
447,CC(=O)c1ccn[nH]1,O,0,0,11.85,['11.85'],['combined_training_datasets_unique.sdf']
448,CC(=O)c1ccncc1,O,0,0,3.6,['3.6'],['combined_training_datasets_unique.sdf']
449,CC(=O)n1ccnc1,O,0,0,3.6,['3.6'],['combined_training_datasets_unique.sdf']
450,CC(=O)n1ccnc1C,O,0,0,5.03,['5.03'],['combined_training_datasets_unique.sdf']
451,CC(=S)Nc1ccc(Cl)cc1,O,0,0,11.06,['11.06'],['combined_training_datasets_unique.sdf']
452,CC(=S)Nc1ccccc1,O,0,0,11.56,['11.56'],['combined_training_datasets_unique.sdf']
453,CC(=[NH2+])N1C2CC(OC(=O)C(CO)c3ccccc3)CC1C1OC12,O,0,0,10.74,['10.74'],['combined_training_datasets_unique.sdf']
454,CC(=[NH2+])N1C2CCC1CC(OC(=O)C(CO)c1ccccc1)C2,O,0,0,10.92,['10.92'],['combined_training_datasets_unique.sdf']
455,CC(Br)C(=O)[O-],O,0,0,2.97,['2.97'],['combined_training_datasets_unique.sdf']
456,CC(C#N)(CC(=O)[O-])c1ccccc1,O,0,0,3.99,['3.99'],['combined_training_datasets_unique.sdf']
457,CC(C#N)(Cc1ccccc1)C(=O)[O-],O,0,0,2.29,['2.29'],['combined_training_datasets_unique.sdf']
458,CC(C#N)C(=O)[O-],O,0,0,2.37,['2.37'],['combined_training_datasets_unique.sdf']
459,CC(C#N)C(C)(C)C(=O)[O-],O,0,0,3.97,['3.97'],['combined_training_datasets_unique.sdf']
460,CC(C#N)CC(=O)[O-],O,0,0,3.95,['3.95'],['combined_training_datasets_unique.sdf']
461,CC(C#N)CN,O,0,0,7.75,['7.75'],['combined_training_datasets_unique.sdf']
462,CC(C(=O)[O-])C(C#N)c1ccccc1,O,0,0,3.7,['3.7'],['combined_training_datasets_unique.sdf']
463,CC(C(=O)[O-])c1ccc(-c2ccccc2)c(F)c1,O,0,0,4.386667,['4.386667'],['combined_training_datasets_unique.sdf']
464,CC(C(=O)[O-])c1ccc(C(=O)c2cccs2)cc1,O,0,0,4.0,['4.0'],['combined_training_datasets_unique.sdf']
465,CC(C(=O)[O-])c1ccc(N2Cc3ccccc3C2=O)cc1,O,0,0,4.6,['4.6'],['combined_training_datasets_unique.sdf']
466,CC(C(=O)[O-])c1ccc2c(c1)[nH]c1ccc(Cl)cc12,O,0,0,4.7,['4.7'],['combined_training_datasets_unique.sdf']
467,CC(C(=O)[O-])c1ccc2oc(-c3ccc(Cl)cc3)nc2c1,O,0,0,6.9,['6.9'],['combined_training_datasets_unique.sdf']
468,CC(C(=O)[O-])c1cccc(C(=O)c2ccccc2)c1,O,0,0,4.353333,['4.353333'],['combined_training_datasets_unique.sdf']
469,CC(C(=O)[O-])c1cccc(Oc2ccccc2)c1,O,0,0,4.5,['4.5'],['combined_training_datasets_unique.sdf']
470,CC(C(=O)[O-])c1cccc2nc(-c3ccc(Cl)cc3)oc12,O,0,0,6.25,['6.25'],['combined_training_datasets_unique.sdf']
471,CC(C(=O)[O-])c1cccc2nc(-c3ccccc3)oc12,O,0,0,6.2,['6.2'],['combined_training_datasets_unique.sdf']
472,CC(C(N)=O)S(=O)(=O)NC(N)=O,O,0,0,5.21,['5.21'],['combined_training_datasets_unique.sdf']
473,CC(C(N)=O)S(N)(=O)=O,O,0,0,9.86,['9.86'],['combined_training_datasets_unique.sdf']
474,CC(C(O)c1ccccc1)[NH+](C)C,O,0,0,9.3,['9.3'],['combined_training_datasets_unique.sdf']
475,CC(C)(C#N)CC(=O)[O-],O,0,0,4.04,['4.04'],['combined_training_datasets_unique.sdf']
476,CC(C)(C(=O)[O-])C(C#N)c1ccccc1,O,0,0,3.95,['3.95'],['combined_training_datasets_unique.sdf']
477,CC(C)(C(=O)[O-])C(C(N)=O)c1ccccc1,O,0,0,4.8,['4.8'],['combined_training_datasets_unique.sdf']
478,CC(C)(C(=O)[O-])c1nnnn1C1CCCCC1,O,0,0,3.7,['3.7'],['combined_training_datasets_unique.sdf']
479,CC(C)(C(N)=O)S(=O)(=O)NC(N)=O,O,0,0,5.15,['5.15'],['combined_training_datasets_unique.sdf']
480,CC(C)(C(N)=O)S(N)(=O)=O,O,0,0,9.92,['9.92'],['combined_training_datasets_unique.sdf']
481,CC(C)(C)/C(N)=[NH+]/O,O,0,0,5.8,['5.8'],['combined_training_datasets_unique.sdf']
482,CC(C)(C)C#CC(=O)[O-],O,0,0,2.66,['2.66'],['combined_training_datasets_unique.sdf']
483,CC(C)(C)C(=O)C(=O)[O-],O,0,0,2.3,['2.3'],['combined_training_datasets_unique.sdf']
484,CC(C)(C)C(=O)C=C(O)C(C)(C)C,O,0,0,11.77,['11.77'],['combined_training_datasets_unique.sdf']
485,CC(C)(C)C(=O)C[NH+]1CCC(CNC(=O)c2cc(Cl)cc(Cl)c2)CC1,O,0,0,8.0,['8.0'],['combined_training_datasets_unique.sdf']
486,CC(C)(C)C(=O)NO,O,0,0,9.59,['9.59'],['combined_training_datasets_unique.sdf']
487,CC(C)(C)C(=O)[O-],O,0,0,5.04,['5.04'],['combined_training_datasets_unique.sdf']
488,CC(C)(C)C(=O)c1ccc2n1CCC2C(=O)[O-],O,0,0,3.57,['3.57'],['combined_training_datasets_unique.sdf']
489,CC(C)(C)C(O)C[NH+]1CCC(CNC(=O)c2cc(Cl)cc(Cl)c2)CC1,O,0,0,9.2,['9.2'],['combined_training_datasets_unique.sdf']
490,CC(C)(C)C1CCC(CC2=C(OCOP(=O)([O-])[O-])C(=O)c3ccccc3C2=O)CC1,O,0,0,2.28,['2.28'],['combined_training_datasets_unique.sdf']
491,CC(C)(C)C1CCC(CC2=C(OP(=O)([O-])[O-])C(=O)c3ccccc3C2=O)CC1,O,0,0,2.68,['2.68'],['combined_training_datasets_unique.sdf']
492,CC(C)(C)C1CCn2nnnc2C(C(=O)[O-])C1,O,0,0,4.4,['4.4'],['combined_training_datasets_unique.sdf']
493,CC(C)(C)CC#CC(=O)[O-],O,0,0,2.54,['2.54'],['combined_training_datasets_unique.sdf']
494,CC(C)(C)CC(=O)[O-],O,0,0,5.01,['5.01'],['combined_training_datasets_unique.sdf']
495,CC(C)(C)CC(=O)n1ccnc1,O,0,0,3.8,['3.8'],['combined_training_datasets_unique.sdf']
496,CC(C)(C)CC(C)(C)[NH3+],O,0,0,10.84,['10.84'],['combined_training_datasets_unique.sdf']
497,CC(C)(C)CCC(=O)[O-],O,0,0,4.83,['4.83'],['combined_training_datasets_unique.sdf']
498,CC(C)(C)CCCC(=O)[O-],O,0,0,4.88,['4.88'],['combined_training_datasets_unique.sdf']
499,CC(C)(C)CCCCc1ccc(O)cc1,O,0,0,11.22,['11.22'],['combined_training_datasets_unique.sdf']
500,CC(C)(C)CC[NH+]1CCC(CNC(=O)c2cc(Cl)cc(Cl)c2)CC1,O,0,0,8.7,['8.7'],['combined_training_datasets_unique.sdf']
501,CC(C)(C)CC[NH+]1CC[C@@H](CNC(=O)c2cc(Cl)cc(Cl)c2)[C@H](F)C1,O,0,0,6.7,['6.7'],['combined_training_datasets_unique.sdf']
502,CC(C)(C)CC[NH+]1CC[C@H](CNC(=O)c2cc(Cl)cc(Cl)c2)[C@H](F)C1,O,0,0,7.9,['7.9'],['combined_training_datasets_unique.sdf']
503,CC(C)(C)CNc1ccccc1,O,0,0,4.17,['4.17'],['combined_training_datasets_unique.sdf']
504,CC(C)(C)COCC(O)C[NH2+]C(C)(C)C,O,0,0,9.68,['9.68'],['combined_training_datasets_unique.sdf']
505,CC(C)(C)C[NH3+],O,0,0,10.17,['10.17'],['combined_training_datasets_unique.sdf']
506,CC(C)(C)Cc1ccc(O)cc1,O,0,0,10.71,['10.71'],['combined_training_datasets_unique.sdf']
507,CC(C)(C)Cc1ccccc1O,O,0,0,10.69,['10.69'],['combined_training_datasets_unique.sdf']
508,CC(C)(C)N(O)C(=O)c1ccccc1,O,0,0,10.1,['10.1'],['combined_training_datasets_unique.sdf']
509,CC(C)(C)N1NC2CCC1C2,O,0,0,9.12,['9.12'],['combined_training_datasets_unique.sdf']
510,CC(C)(C)N1NC2CCC1C21CC1,O,0,0,9.33,['9.33'],['combined_training_datasets_unique.sdf']
511,CC(C)(C)N1NC2CCC1CC2,O,0,0,9.54,['9.54'],['combined_training_datasets_unique.sdf']
512,CC(C)(C)NC(=O)C[NH+]1CCC(CNC(=O)c2cc(Cl)cc(Cl)c2)CC1,O,0,0,7.6,['7.6'],['combined_training_datasets_unique.sdf']
513,CC(C)(C)NC(=O)[C@@H]1C[C@@H]2CCCC[C@@H]2C[NH+]1C[C@@H](O)[C@H](Cc1ccccc1)NC(=O)[C@H](CC(N)=O)NC(=O)c1ccc2ccccc2n1,O,0,0,6.8,['6.8'],['combined_training_datasets_unique.sdf']
514,CC(C)(C)NNC(C)(C)C,O,0,0,8.31,['8.31'],['combined_training_datasets_unique.sdf']
515,CC(C)(C)Nc1ccccc1,O,0,0,7.15,['7.15'],['combined_training_datasets_unique.sdf']
516,CC(C)(C)OC(=O)NC(CCC(N)=O)C(=O)[O-],O,0,0,3.66,['3.66'],['combined_training_datasets_unique.sdf']
517,CC(C)(C)OC(=O)N[C@@H](C(=O)N1CCC[C@H]1C(=O)NCc1ccc(N)nc1)C(C1CCCCC1)C1CCCCC1,O,0,0,6.5,['6.5'],['combined_training_datasets_unique.sdf']
518,CC(C)(C)OC(=O)Nc1ccc(OC(=O)Nc2cc(Cl)ccc2O)cc1,O,0,0,9.8,['9.8'],['combined_training_datasets_unique.sdf']
519,CC(C)(C)OC(=O)[N-]S(=O)(=O)c1ccc(S(C)(=O)=O)cc1,O,0,0,3.76,['3.76'],['combined_training_datasets_unique.sdf']
520,CC(C)(C)OOCC(=O)[O-],O,0,0,3.49,['3.49'],['combined_training_datasets_unique.sdf']
521,CC(C)(C)OOCCC(=O)[O-],O,0,0,4.36,['4.36'],['combined_training_datasets_unique.sdf']
522,CC(C)(C)S,O,0,0,11.14,['11.14'],['combined_training_datasets_unique.sdf']
523,CC(C)(C)SC(=N)c1ccccc1,O,0,0,9.24,['9.24'],['combined_training_datasets_unique.sdf']
524,CC(C)(C)[C@@]1(O)CC[NH+]2C[C@@H]3c4ccccc4CCc4cccc(c43)[C@H]2C1,O,0,0,5.9,['5.9'],['combined_training_datasets_unique.sdf']
525,CC(C)(C)[C@H]1CC[C@H](CC2=C([O-])c3ccccc3C(=O)C2=O)CC1,O,0,0,5.7,['5.7'],['combined_training_datasets_unique.sdf']
526,CC(C)(C)[C@]1(O)CC[NH+]2C[C@@H](c3ccccc3)c3ccccc3[C@@H]2C1,O,0,0,7.03,['7.03'],['combined_training_datasets_unique.sdf']
527,CC(C)(C)[C@]1(O)CC[NH+]2C[C@H]3c4ccccc4CCc4cccc(c43)[C@@H]2C1,O,0,0,7.15,['7.15'],['combined_training_datasets_unique.sdf']
528,CC(C)(C)[NH+]1C2CCCC21,O,0,0,9.22,['9.22'],['combined_training_datasets_unique.sdf']
529,CC(C)(C)[NH+]1CCC(Oc2ccc3[nH]c(C(=O)N4CCOCC4)cc3c2)CC1,O,0,0,10.0,['10.0'],['combined_training_datasets_unique.sdf']
530,CC(C)(C)[NH+]1CCCC(=O)C(O)CCC1,O,0,0,7.6,['7.6'],['combined_training_datasets_unique.sdf']
531,CC(C)(C)[NH2+]C1CCCCC1,O,0,0,11.34,['11.34'],['combined_training_datasets_unique.sdf']
532,CC(C)(C)[NH2+]CC(O)COC(C1CC1)C1CC1,O,0,0,9.63,['9.63'],['combined_training_datasets_unique.sdf']
533,CC(C)(C)[NH2+]CC(O)COCC1CC1,O,0,0,9.73,['9.73'],['combined_training_datasets_unique.sdf']
534,CC(C)(C)[NH2+]CC(O)COc1cccc2c1CCC(=O)N2,O,0,0,9.2,['9.2'],['combined_training_datasets_unique.sdf']
535,CC(C)(C)[NH2+]CC(O)COc1cccc2c1C[C@H](O)[C@H](O)C2,O,0,0,9.735,['9.735'],['combined_training_datasets_unique.sdf']
536,CC(C)(C)[NH2+]CC(O)c1cc(Cl)c(N)c(C(F)(F)F)c1,O,0,0,9.7,['9.7'],['combined_training_datasets_unique.sdf']
537,CC(C)(C)[NH2+]CCO,O,0,0,10.11,['10.11'],['combined_training_datasets_unique.sdf']
538,CC(C)(C)[NH2+]C[C@@H](O)COc1cccc2c1CCCC2=O,O,0,0,9.3,['9.3'],['combined_training_datasets_unique.sdf']
539,CC(C)(C)[NH2+]C[C@@H](O)COc1ccccc1C1CCCC1,O,0,0,9.3,['9.3'],['combined_training_datasets_unique.sdf']
540,CC(C)(C)[NH2+]C[C@H](O)COc1ccccc1C1CCCC1,O,0,0,9.92,['9.92'],['combined_training_datasets_unique.sdf']
541,CC(C)(C)[NH2+]C[C@H](O)COc1nsnc1N1CCOCC1,O,0,0,9.226,['9.226'],['combined_training_datasets_unique.sdf']
542,CC(C)(C)[NH3+],O,0,0,10.765,['10.765'],['combined_training_datasets_unique.sdf']
543,CC(C)(C)c1[nH]c2ccccc2c1C1CCC[NH+](Cc2ccc(CCC(=O)N=O)cc2)C1,O,0,0,7.8,['7.8'],['combined_training_datasets_unique.sdf']
544,CC(C)(C)c1[nH]c2ccccc2c1C1CCC[NH+](Cc2ccc(CCC(=O)N=O)cc2Cl)C1,O,0,0,7.4,['7.4'],['combined_training_datasets_unique.sdf']
545,CC(C)(C)c1[nH]c2ccccc2c1C1CCC[NH+](Cc2ccc(CCC(=O)N=O)cc2F)C1,O,0,0,7.3,['7.3'],['combined_training_datasets_unique.sdf']
546,CC(C)(C)c1cc(/C=C/Cl)cc(C(C)(C)C)c1O,O,0,0,11.82,['11.82'],['combined_training_datasets_unique.sdf']
547,CC(C)(C)c1cc(N)cc(C(C)(C)C)c1,O,0,0,4.97,['4.97'],['combined_training_datasets_unique.sdf']
548,CC(C)(C)c1ccc(-c2c([O-])c2=O)cc1,O,0,0,2.21,['2.21'],['combined_training_datasets_unique.sdf']
549,CC(C)(C)c1ccc(C(=O)/C=C/C(=O)[O-])cc1,O,0,0,3.42,['3.42'],['combined_training_datasets_unique.sdf']
550,CC(C)(C)c1ccc(C(=O)[O-])cc1,O,0,0,4.36,['4.36'],['combined_training_datasets_unique.sdf']
551,CC(C)(C)c1ccc(C(O)CCC[NH+]2CCC(C(O)(c3ccccc3)c3ccccc3)CC2)cc1,O,0,0,8.6,['8.6'],['combined_training_datasets_unique.sdf']
552,CC(C)(C)c1ccc(N)cc1,O,0,0,4.95,['4.95'],['combined_training_datasets_unique.sdf']
553,CC(C)(C)c1ccc(O)cc1,O,0,0,10.303333,['10.303333'],['combined_training_datasets_unique.sdf']
554,CC(C)(C)c1ccc(SCC(=O)[O-])cc1,O,0,0,3.76,['3.76'],['combined_training_datasets_unique.sdf']
555,CC(C)(C)c1ccc2c(c1)C(=O)NC2=O,O,0,0,10.21,['10.21'],['combined_training_datasets_unique.sdf']
556,CC(C)(C)c1cccc(C(C)(C)C)n1,O,0,0,4.95,['4.95'],['combined_training_datasets_unique.sdf']
557,CC(C)(C)c1cccc(CN[C@H]2CS(=O)(=O)C[C@@H](Cc3cc(F)c(N)c(OC(C(F)(F)F)C(F)(F)F)c3)[C@@H]2O)c1,O,0,0,5.7,['5.7'],['combined_training_datasets_unique.sdf']
558,CC(C)(C)c1ccccc1C(=O)[O-],O,0,0,3.53,['3.53'],['combined_training_datasets_unique.sdf']
559,CC(C)(C)c1ccccc1N,O,0,0,3.78,['3.78'],['combined_training_datasets_unique.sdf']
560,CC(C)(C)c1ccccc1Nc1c2ccccc2nc2ccccc12,O,0,0,7.62,['7.62'],['combined_training_datasets_unique.sdf']
561,CC(C)(C)c1ccccc1O,O,0,0,11.3,['11.3'],['combined_training_datasets_unique.sdf']
562,CC(C)(C)c1ccccn1,O,0,0,5.72,['5.72'],['combined_training_datasets_unique.sdf']
563,CC(C)(C)c1cccnc1,O,0,0,5.82,['5.82'],['combined_training_datasets_unique.sdf']
564,CC(C)(C)c1ccnc(C(C)(C)C)c1,O,0,0,6.7,['6.7'],['combined_training_datasets_unique.sdf']
565,CC(C)(C)c1ccncc1,O,0,0,5.95,['5.95'],['combined_training_datasets_unique.sdf']
566,CC(C)(C)c1cn2nc(S(N)(=O)=O)sc2[nH+]1,O,0,0,6.94,['6.94'],['combined_training_datasets_unique.sdf']
567,CC(C)(C)n1ccnc1,O,0,0,7.35,['7.35'],['combined_training_datasets_unique.sdf']
568,CC(C)(CCC(CO[N+](=O)[O-])O[N+](=O)[O-])C(=O)Oc1ccccc1C(=O)[O-],O,0,0,3.69,['3.69'],['combined_training_datasets_unique.sdf']
569,CC(C)(CO[N+](=O)[O-])C(=O)Oc1ccccc1C(=O)[O-],O,0,0,3.69,['3.69'],['combined_training_datasets_unique.sdf']
570,CC(C)(Cl)C(=O)[O-],O,0,0,2.97,['2.97'],['combined_training_datasets_unique.sdf']
571,CC(C)(N)C#N,O,0,0,5.3,['5.3'],['combined_training_datasets_unique.sdf']
572,CC(C)(O)C(=O)[O-],O,0,0,4.04,['4.04'],['combined_training_datasets_unique.sdf']
573,CC(C)(O)C(C(=O)[O-])c1ccc(-c2ccccc2)cc1,O,0,0,3.76,['3.76'],['combined_training_datasets_unique.sdf']
574,CC(C)(O)C(C(=O)[O-])c1ccc(C2CCCCC2)cc1,O,0,0,3.76,['3.76'],['combined_training_datasets_unique.sdf']
575,CC(C)(O)CCS(=O)(=O)c1ccc(S(N)(=O)=O)cc1,O,0,0,9.28,['9.28'],['combined_training_datasets_unique.sdf']
576,CC(C)(O)CCSc1ccc(S(N)(=O)=O)cc1,O,0,0,10.0,['10.0'],['combined_training_datasets_unique.sdf']
577,CC(C)(O)c1ccn2ccnc2c1,O,0,0,7.2,['7.2'],['combined_training_datasets_unique.sdf']
578,CC(C)(O)c1ccn2ccnc2c1F,O,0,0,5.4,['5.4'],['combined_training_datasets_unique.sdf']
579,CC(C)(Oc1cc2c(c(Cl)c1Cl)C(=O)C(C)(C1CCCC1)C2)C(=O)[O-],O,0,0,3.7,['3.7'],['combined_training_datasets_unique.sdf']
580,CC(C)([NH3+])C(=O)N[C@H](Cc1c[nH]c2ccccc12)C(=O)N1CCC2(CCc3ccccc32)CC1,O,0,0,7.9,['7.9'],['combined_training_datasets_unique.sdf']
581,CC(C)([NH3+])CNC(=O)CC1CCC2(CC1)COC1(OO2)C2CC3CC(C2)CC1C3,O,0,0,9.05,['9.05'],['combined_training_datasets_unique.sdf']
582,CC(C)([NH3+])CNC(=O)CC1CCC2(CC1)OOC1(OO2)C2CC3CC(C2)CC1C3,O,0,0,9.05,['9.05'],['combined_training_datasets_unique.sdf']
583,CC(C)([NH3+])CNC(=O)C[C@H]1CC[C@@]2(CC1)C[C@@]1(OO2)C2CC3CC(C2)CC1C3,O,0,0,9.05,['9.05'],['combined_training_datasets_unique.sdf']
584,CC(C)([NH3+])CNC(=O)C[C@H]1CC[C@]2(CC1)OO[C@]1(O2)C2CC3CC(C2)CC1C3,O,0,0,9.05,['9.05'],['combined_training_datasets_unique.sdf']
585,CC(C)([NH3+])CO,O,0,0,9.74,['9.74'],['combined_training_datasets_unique.sdf']
586,CC(C)([NH3+])Cc1ccccc1,O,0,0,10.13,['10.13'],['combined_training_datasets_unique.sdf']
587,CC(C)([NH3+])c1ccccc1,O,0,0,10.38,['10.38'],['combined_training_datasets_unique.sdf']
588,CC(C)/C=C/C(=O)[O-],O,0,0,4.7,['4.7'],['combined_training_datasets_unique.sdf']
589,CC(C)=C(C#N)C(=O)[O-],O,0,0,3.04,['3.04'],['combined_training_datasets_unique.sdf']
590,CC(C)=C(C(N)=O)C(=O)[O-],O,0,0,3.95,['3.95'],['combined_training_datasets_unique.sdf']
591,CC(C)=CC(=O)[O-],O,0,0,5.12,['5.12'],['combined_training_datasets_unique.sdf']
592,CC(C)=CCC(=O)[O-],O,0,0,4.6,['4.6'],['combined_training_datasets_unique.sdf']
593,CC(C)=CCC1C(=O)C(CC=C(C)C)(CC=C(C)C)C(=O)C(C(=O)CC(C)C)=C1[O-],O,0,0,6.18,['6.18'],['combined_training_datasets_unique.sdf']
594,CC(C)=CCN(C1=[NH+]CCN1)c1c(Br)cccc1Br,O,0,0,10.75,['10.75'],['combined_training_datasets_unique.sdf']
595,CC(C)=CC[C@@H]1C([O-])=C(C(=O)CC(C)C)C(=O)[C@H]1O,O,0,0,2.35,['2.35'],['combined_training_datasets_unique.sdf']
596,CC(C)C(=O)C(C)(C)C[NH+](C)C,O,0,0,9.3,['9.3'],['combined_training_datasets_unique.sdf']
597,CC(C)C(=O)C=C(O)C(C)C,O,0,0,9.86,['9.86'],['combined_training_datasets_unique.sdf']
598,CC(C)C(=O)C=CO,O,0,0,6.68,['6.68'],['combined_training_datasets_unique.sdf']
599,CC(C)C(=O)N(Cc1cccc(Cl)c1Cl)[C@H]1CC[NH2+]C1,O,0,0,9.4,['9.4'],['combined_training_datasets_unique.sdf']
600,CC(C)C(=O)N(Cc1ccccc1-c1ccccc1)[C@H]1CC[NH2+]C1,O,0,0,9.4,['9.4'],['combined_training_datasets_unique.sdf']
601,CC(C)C(=O)[O-],O,0,0,4.76,['4.76'],['combined_training_datasets_unique.sdf']
602,CC(C)C(Br)C(=O)[O-],O,0,0,2.82,['2.82'],['combined_training_datasets_unique.sdf']
603,CC(C)C(C(C)C)[NH+](C)C,O,0,0,10.06,['10.06'],['combined_training_datasets_unique.sdf']
604,CC(C)C(Nc1ccccc1)C(=O)[O-],O,0,0,4.4,['4.4'],['combined_training_datasets_unique.sdf']
605,CC(C)C(O)C(C(=O)[O-])c1ccc(-c2ccccc2)cc1,O,0,0,4.13,['4.13'],['combined_training_datasets_unique.sdf']
606,CC(C)C(O[C@H]1O[C@@H](C(=O)[O-])[C@H](O)[C@@H](O)[C@@H]1O)C(C)C,O,0,0,3.89,['3.89'],['combined_training_datasets_unique.sdf']
607,CC(C)C([NH3+])C(C)C,O,0,0,10.4,['10.4'],['combined_training_datasets_unique.sdf']
608,CC(C)C([NH3+])C(N)=O,O,0,0,8.0,['8.0'],['combined_training_datasets_unique.sdf']
609,CC(C)C12CCC(=O)C=C1c1c(cc(OCC(=O)[O-])c(Cl)c1Cl)C2,O,0,0,3.83,['3.83'],['combined_training_datasets_unique.sdf']
610,CC(C)C1=C([O-])c2ccccc2C1=O,O,0,0,7.4,['7.4'],['combined_training_datasets_unique.sdf']