,Solute SMILES,Solvent SMILES,Solute CAS,Solute IUPAC,pKa (avg),pKa (all),Source
804,CC(CC(O)(c1ccccc1)c1ccccc1)[NH+]1CCCCC1,O,0,0,8.62,['8.62'],['combined_training_datasets_unique.sdf']
805,CC(CC(c1ccccc1)c1ccccc1)[NH+]1CCCCC1,O,0,0,8.8,['8.8'],['combined_training_datasets_unique.sdf']
806,CC(CC(c1ccccc1)c1ccccc1)[NH+]1CCOCC1,O,0,0,6.9,['6.9'],['combined_training_datasets_unique.sdf']
807,CC(CC[NH+](C)C)N=O,O,0,0,11.2,['11.2'],['combined_training_datasets_unique.sdf']
808,CC(CN1c2ccccc2CCc2ccccc21)C[NH+](C)C,O,0,0,8.72,['8.72'],['combined_training_datasets_unique.sdf']
809,CC(CN1c2ccccc2Sc2ccccc21)C[NH+](C)C,O,0,0,9.235,['9.235'],['combined_training_datasets_unique.sdf']
810,CC(CN1c2ccccc2Sc2ccccc21)[NH+](C)C,O,0,0,9.07,['9.07'],['combined_training_datasets_unique.sdf']
811,CC(CO)C[NH+](C)C,O,0,0,9.75,['9.75'],['combined_training_datasets_unique.sdf']
812,CC(C[NH+](C)C)C(C#N)(c1ccccc1)c1ccccc1,O,0,0,7.9,['7.9'],['combined_training_datasets_unique.sdf']
813,CC(C[NH+](C)C)N=O,O,0,0,10.9,['10.9'],['combined_training_datasets_unique.sdf']
814,CC(C[NH+]1CCCCC1)C(C#N)(c1ccccc1)c1ccccc1,O,0,0,7.54,['7.54'],['combined_training_datasets_unique.sdf']
815,CC(Cc1ccccc1)N(C)CCC#N,O,0,0,6.95,['6.95'],['combined_training_datasets_unique.sdf']
816,CC(Cc1ccccc1)NCCC#N,O,0,0,7.23,['7.23'],['combined_training_datasets_unique.sdf']
817,CC(Cc1ccccc1)[NH2+]CCC(c1ccccc1)c1ccccc1,O,0,0,8.92,['8.92'],['combined_training_datasets_unique.sdf']
818,CC(Cl)C(=O)[O-],O,0,0,2.88,['2.88'],['combined_training_datasets_unique.sdf']
819,CC(Cl)C[NH+](C)C,O,0,0,8.12,['8.12'],['combined_training_datasets_unique.sdf']
820,CC(Cl)C[NH3+],O,0,0,8.54,['8.54'],['combined_training_datasets_unique.sdf']
821,CC(I)C(=O)[O-],O,0,0,3.21,['3.21'],['combined_training_datasets_unique.sdf']
822,CC(N)=[NH+]c1nsc2ccccc12,O,0,0,6.99,['6.99'],['combined_training_datasets_unique.sdf']
823,CC(N)CC#N,O,0,0,7.85,['7.85'],['combined_training_datasets_unique.sdf']
824,CC(N=O)C(C[NH+](C)C)N=O,O,0,0,9.5,['9.5'],['combined_training_datasets_unique.sdf']
825,CC(Nc1ccc2c(c1)[C@@H](NC(=O)c1ccc(Br)cc1)[C@H](O)C2)=[NH+]Cc1ccc(F)cc1,O,0,0,8.49,['8.49'],['combined_training_datasets_unique.sdf']
826,CC(Nc1ccc2c(c1)[C@@H](NC(=O)c1ccc(Br)cc1)[C@H](O)C2)=[NH+]c1ccc(F)cc1,O,0,0,8.2,['8.2'],['combined_training_datasets_unique.sdf']
827,CC(Nc1ccccc1)=[NH+]c1ccccc1,O,0,0,8.3,['8.3'],['combined_training_datasets_unique.sdf']
828,CC(O)(C(=O)[O-])c1ccccc1,O,0,0,3.53,['3.53'],['combined_training_datasets_unique.sdf']
829,CC(O)(c1ccccc1)C(C(=O)[O-])c1ccc(-c2ccccc2)cc1,O,0,0,3.38,['3.38'],['combined_training_datasets_unique.sdf']
830,CC(O)=CC(=O)C(C)(C)C,O,0,0,9.94,['9.94'],['combined_training_datasets_unique.sdf']
831,CC(O)=CC(=O)C(F)(F)F,O,0,0,6.09,['6.09'],['combined_training_datasets_unique.sdf']
832,CC(O)=CC(=O)Nc1ccc(C)cc1,O,0,0,10.15,['10.15'],['combined_training_datasets_unique.sdf']
833,CC(O)=CC(=O)Nc1cccc(C)c1,O,0,0,10.0,['10.0'],['combined_training_datasets_unique.sdf']
834,CC(O)=CC(=O)Nc1ccccc1,O,0,0,9.94,['9.94'],['combined_training_datasets_unique.sdf']
835,CC(O)=CC(N)=O,O,0,0,10.41,['10.41'],['combined_training_datasets_unique.sdf']
836,CC(O)C(=O)[O-],O,0,0,3.76,['3.76'],['combined_training_datasets_unique.sdf']
837,CC(O)C(C(=O)[O-])c1ccc(-c2ccccc2)cc1,O,0,0,4.3,['4.3'],['combined_training_datasets_unique.sdf']
838,CC(O)C(C(=O)[O-])c1ccc(C2CCCCC2)cc1,O,0,0,4.21,['4.21'],['combined_training_datasets_unique.sdf']
839,CC(O)CC(=O)[O-],O,0,0,4.5,['4.5'],['combined_training_datasets_unique.sdf']
840,CC(O)C[NH+](C)CC(C)O,O,0,0,8.7,['8.7'],['combined_training_datasets_unique.sdf']
841,CC(O)C[NH+](C)CCO,O,0,0,8.69,['8.69'],['combined_training_datasets_unique.sdf']
842,CC(O)C[NH+](CC(C)O)C(C)(C)C,O,0,0,9.36,['9.36'],['combined_training_datasets_unique.sdf']
843,CC(O)C[NH+](CC(C)O)C(C)C,O,0,0,9.33,['9.33'],['combined_training_datasets_unique.sdf']
844,CC(O)C[NH+](CCO)C(C)(C)C,O,0,0,9.2,['9.2'],['combined_training_datasets_unique.sdf']
845,CC(O)C[NH+](Cc1ccccc1)CC(C)O,O,0,0,7.5,['7.5'],['combined_training_datasets_unique.sdf']
846,CC(O)C[NH2+]C(C)(C)C,O,0,0,10.0,['10.0'],['combined_training_datasets_unique.sdf']
847,CC(O)C[NH2+]CC(C)O,O,0,0,8.88,['8.88'],['combined_training_datasets_unique.sdf']
848,CC(O)C[NH2+]CCO,O,0,0,8.81,['8.81'],['combined_training_datasets_unique.sdf']
849,CC(O)[C@@H]1C[C@H](CC(=O)[O-])C1(C)C,O,0,0,4.83,['4.83'],['combined_training_datasets_unique.sdf']
850,CC(O)c1cccc(O)c1CO,O,0,0,9.9,['9.9'],['combined_training_datasets_unique.sdf']
851,CC(OCC(O)C[NH2+]C(C)(C)C)C1CC1,O,0,0,9.76,['9.76'],['combined_training_datasets_unique.sdf']
852,CC(P)C(=O)[O-],O,0,0,4.15,['4.15'],['combined_training_datasets_unique.sdf']
853,CC([C@H](O)c1ccccc1)[NH+](C)C,O,0,0,9.0,['9.0'],['combined_training_datasets_unique.sdf']
854,CC([NH2+]C(C)(C)C)C(=O)c1cccc(Cl)c1,O,0,0,8.6,['8.6'],['combined_training_datasets_unique.sdf']
855,CC([NH2+]CCC(c1ccccc1)c1ccccc1)c1ccccc1,O,0,0,9.04,['9.04'],['combined_training_datasets_unique.sdf']
856,CC([NH3+])(CO)CO,O,0,0,8.8,['8.8'],['combined_training_datasets_unique.sdf']
857,CC([NH3+])C(N)=O,O,0,0,8.02,['8.02'],['combined_training_datasets_unique.sdf']
858,CC([NH3+])CC1CCCCC1,O,0,0,10.14,['10.14'],['combined_training_datasets_unique.sdf']
859,CC([NH3+])CCCc1ccccc1,O,0,0,9.99,['9.99'],['combined_training_datasets_unique.sdf']
860,CC([NH3+])CCc1ccccc1,O,0,0,9.78,['9.78'],['combined_training_datasets_unique.sdf']
861,CC([NH3+])CO,O,0,0,9.43,['9.43'],['combined_training_datasets_unique.sdf']
862,CC([NH3+])Cc1ccc2c(c1)OCO2,O,0,0,9.67,['9.67'],['combined_training_datasets_unique.sdf']
863,CC([NH3+])Cc1ccccc1,O,0,0,9.9,['9.9'],['combined_training_datasets_unique.sdf']
864,CC([NH3+])c1ccccc1,O,0,0,9.36,['9.36'],['combined_training_datasets_unique.sdf']
865,CC/C(=C(\c1ccccc1)c1ccc(OCC[NH+](C)C)cc1)c1ccccc1,O,0,0,9.203333,['9.203333'],['combined_training_datasets_unique.sdf']
866,CC/C(C)=C/C(=O)[O-],O,0,0,5.14,['5.14'],['combined_training_datasets_unique.sdf']
867,CC/C(C)=C\C(=O)[O-],O,0,0,5.15,['5.15'],['combined_training_datasets_unique.sdf']
868,CC/C(N)=[NH+]/O,O,0,0,5.95,['5.95'],['combined_training_datasets_unique.sdf']
869,CC/C=C/C(=O)[O-],O,0,0,4.69,['4.69'],['combined_training_datasets_unique.sdf']
870,CC/C=C/CC(=O)N[C@H]1C(=O)N2[C@H]1SC(C)(C)[C@H]2C(=O)[O-],O,0,0,2.84,['2.84'],['combined_training_datasets_unique.sdf']
871,CC/C=C/CC(=O)[O-],O,0,0,4.52,['4.52'],['combined_training_datasets_unique.sdf']
872,CC/N=c1\sc(-c2ccccc2)nn1CC,O,0,0,6.7,['6.7'],['combined_training_datasets_unique.sdf']
873,CC/[NH+]=C(\N=[N+]=[N-])c1ccccc1O,O,0,0,9.4,['9.4'],['combined_training_datasets_unique.sdf']
874,CC1(C(=O)[O-])CCC=[N+]1[O-],O,0,0,2.95,['2.95'],['combined_training_datasets_unique.sdf']
875,CC1(C(=O)[O-])CCCCC1,O,0,0,5.13,['5.13'],['combined_training_datasets_unique.sdf']
876,CC1(C(F)(F)F)NCCc2c1oc1cc(S(=O)(=O)c3cccc(F)c3)ccc21,O,0,0,5.7,['5.7'],['combined_training_datasets_unique.sdf']
877,CC1(C(F)F)NCCc2c1oc1cc(S(=O)(=O)c3cccc(F)c3)ccc21,O,0,0,6.2,['6.2'],['combined_training_datasets_unique.sdf']
878,CC1(C)C(=O)C=C([O-])CC1=O,O,0,0,4.2,['4.2'],['combined_training_datasets_unique.sdf']
879,CC1(C)C(=O)NC(=O)C1(C)C,O,0,0,9.7,['9.7'],['combined_training_datasets_unique.sdf']
880,CC1(C)C=C2N=C3CC(C)(C)CC(=O)C3CC2C(=O)C1,O,0,0,3.6,['3.6'],['combined_training_datasets_unique.sdf']
881,CC1(C)C=CC(C)(c2cc3ccc(=O)oc3cc2O)CC1,O,0,0,8.12,['8.12'],['combined_training_datasets_unique.sdf']
882,CC1(C)CC(=O)C(=C[O-])C(=O)C1,O,0,0,3.65,['3.65'],['combined_training_datasets_unique.sdf']
883,CC1(C)CC(=O)C(Br)=C([O-])C1,O,0,0,3.1,['3.1'],['combined_training_datasets_unique.sdf']
884,CC1(C)CC(=O)C(C)(C)[NH2+]1,O,0,0,7.1,['7.1'],['combined_training_datasets_unique.sdf']
885,CC1(C)CC(=O)C(N=O)=C([O-])C1,O,0,0,5.4,['5.4'],['combined_training_datasets_unique.sdf']
886,CC1(C)CC(=O)C=C([O-])C1,O,0,0,5.21,['5.21'],['combined_training_datasets_unique.sdf']
887,CC1(C)CC([O-])=CC1=O,O,0,0,4.2,['4.2'],['combined_training_datasets_unique.sdf']
888,CC1(C)CCC(=O)N1O,O,0,0,8.7,['8.7'],['combined_training_datasets_unique.sdf']
889,CC1(C)CCC(C(=O)[O-])=[N+]1[O-],O,0,0,2.8,['2.8'],['combined_training_datasets_unique.sdf']
890,CC1(C)CCCC(C)(C)[NH2+]1,O,0,0,11.17,['11.17'],['combined_training_datasets_unique.sdf']
891,CC1(C)CCCC[NH+]1Cc1ccc2c(c1)OCO2,O,0,0,10.2,['10.2'],['combined_training_datasets_unique.sdf']
892,CC1(C)CCC[NH+](Cc2ccc3c(c2)OCO3)C1,O,0,0,9.4,['9.4'],['combined_training_datasets_unique.sdf']
893,CC1(C)CCC[NH+]1Cc1ccc2c(c1)OCO2,O,0,0,10.0,['10.0'],['combined_training_datasets_unique.sdf']
894,CC1(C)CC[NH+](Cc2ccc3c(c2)OCO3)C1,O,0,0,9.7,['9.7'],['combined_training_datasets_unique.sdf']
895,CC1(C)CC[NH+](Cc2ccc3c(c2)OCO3)CC1,O,0,0,9.5,['9.5'],['combined_training_datasets_unique.sdf']
896,CC1(C)CC[NH+]1Cc1ccc2c(c1)OCO2,O,0,0,10.1,['10.1'],['combined_training_datasets_unique.sdf']
897,CC1(C)CCc2c(Cl)c([O-])c(Cl)c(Cl)c2O1,O,0,0,7.1,['7.1'],['combined_training_datasets_unique.sdf']
898,CC1(C)CCc2c(cc(Cl)c([O-])c2Cl)O1,O,0,0,7.7,['7.7'],['combined_training_datasets_unique.sdf']
899,CC1(C)CCc2c(ccc(O)c2Cl)O1,O,0,0,8.6,['8.6'],['combined_training_datasets_unique.sdf']
900,CC1(C)CCc2cc(O)c(Cl)cc2O1,O,0,0,9.1,['9.1'],['combined_training_datasets_unique.sdf']
901,CC1(C)CCc2cc(O)cc(Cl)c2O1,O,0,0,9.8,['9.8'],['combined_training_datasets_unique.sdf']
902,CC1(C)CCc2cc(O)ccc2O1,O,0,0,10.3,['10.3'],['combined_training_datasets_unique.sdf']
903,CC1(C)CCc2cc(S(=O)(=O)N(CC(=O)[O-])Cc3cccc(-c4ccccc4)c3)ccc2O1,O,0,0,3.4,['3.4'],['combined_training_datasets_unique.sdf']
904,CC1(C)C[C@@H](C[NH+]2CCC(F)(CNC(=O)c3cc(Cl)cc(Cl)c3)CC2)CCO1,O,0,0,7.9,['7.9'],['combined_training_datasets_unique.sdf']
905,CC1(C)C[NH+](Cc2ccc3c(c2)OCO3)C1,O,0,0,9.6,['9.6'],['combined_training_datasets_unique.sdf']
906,CC1(C)C[NH2+]1,O,0,0,5.37,['5.37'],['combined_training_datasets_unique.sdf']
907,CC1(C)N=C(C(O)=CC(=O)C(F)(F)F)C(C)(C)N1[O-],O,0,0,4.66,['4.66'],['combined_training_datasets_unique.sdf']
908,CC1(C)NC(=O)NC1=O,O,0,0,9.19,['9.19'],['combined_training_datasets_unique.sdf']
909,CC1(C)NC(=S)NC1=O,O,0,0,8.71,['8.71'],['combined_training_datasets_unique.sdf']
910,CC1(C)NC(=S)NC1=S,O,0,0,7.65,['7.65'],['combined_training_datasets_unique.sdf']
911,CC1(C)OC(=O)C=C([O-])O1,O,0,0,5.15,['5.15'],['combined_training_datasets_unique.sdf']
912,CC1(C)OC(=O)C[C@H]2[C@@H](C(=O)[O-])[NH2+]C[C@H]21,O,0,0,9.0,['9.0'],['combined_training_datasets_unique.sdf']
913,CC1(C)OC(=O)[N-]C1=O,O,0,0,6.15,['6.15'],['combined_training_datasets_unique.sdf']
914,CC1(C)O[C@@H]2CC(=O)OC[C@]23[C@@H]1CC(=O)[C@@]1(C)[C@H]3C[C@](C)(CC2CCOC2)C[C@]12O[C@H]2C(=O)[O-],O,0,0,2.7,['2.7'],['combined_training_datasets_unique.sdf']
915,CC1(C)O[C@@H]2CO[C@@]3(CNS(N)(=O)=O)OC(C)(C)O[C@H]3[C@@H]2O1,O,0,0,10.7,['10.7'],['combined_training_datasets_unique.sdf']
916,CC1(C)O[C@@H]2CO[C@@]3(COS(N)(=O)=O)OC(C)(C)O[C@H]3[C@@H]2O1,O,0,0,8.7,['8.7'],['combined_training_datasets_unique.sdf']
917,CC1(C)O[C@H]2CC(=O)OC[C@@]23[C@H]1C/C(=N/OCC[NH+]1CCCCC1)[C@]1(C)[C@@H]3CC[C@@]2(C)[C@H](c3ccoc3)OC(=O)[C@H]3O[C@]321,O,0,0,8.87,['8.87'],['combined_training_datasets_unique.sdf']
918,CC1(C)O[C@H]2CC(=O)OC[C@]23[C@H]2CC[C@]4(C)C(=CC(=O)O[C@H]4c4ccoc4)[C@]2(C)/C(=N\OCC[NH+]2CCOCC2)C[C@@H]13,O,0,0,6.84,['6.84'],['combined_training_datasets_unique.sdf']
919,CC1(C)SC(=O)[N-]C1=O,O,0,0,6.64,['6.64'],['combined_training_datasets_unique.sdf']
920,CC1(C)SC(=S)[N-]C1=O,O,0,0,5.38,['5.38'],['combined_training_datasets_unique.sdf']
921,CC1(C)S[C@@H]2[C@H](NC(=O)Cc3ccccc3)C(=O)N2[C@H]1C(=O)[O-],O,0,0,2.8,['2.8'],['combined_training_datasets_unique.sdf']
922,CC1(C)S[C@H]2[C@@H](NC(=O)Cc3ccccc3)C(=O)N2[C@@H]1C(=O)[O-],O,0,0,2.76,['2.76'],['combined_training_datasets_unique.sdf']
923,CC1(C)[C@@H]2CC[C@](C(=O)[O-])(C2)[C@@H]1O,O,0,0,4.83,['4.83'],['combined_training_datasets_unique.sdf']
924,CC1(C)[C@H](O)[C@]2(C(=O)[O-])CC[C@@H]1C2,O,0,0,5.05,['5.05'],['combined_training_datasets_unique.sdf']
925,CC1(C)[C@H]2CC[C@@]1(C)[C@@H](O)[C@@H]2C(=O)[O-],O,0,0,2.74,['2.74'],['combined_training_datasets_unique.sdf']
926,CC1(C)[C@H]2CC[C@@]1(C)[C@@H](O)[C@H]2C(=O)[O-],O,0,0,2.05,['2.05'],['combined_training_datasets_unique.sdf']
927,CC1(C2CCCC2)Cc2cc(OC/C=C/CC(=O)[O-])c(Cl)c(Cl)c2C1=O,O,0,0,5.1,['5.1'],['combined_training_datasets_unique.sdf']
928,CC1(C2CCCC2)Cc2cc(OC3(C(=O)[O-])CCC3)c(Cl)c(Cl)c2C1=O,O,0,0,3.8,['3.8'],['combined_training_datasets_unique.sdf']
929,CC1(C2CCCC2)Cc2cc(OCC(=O)[O-])c(Cl)c(Cl)c2C1=O,O,0,0,3.9,['3.9'],['combined_training_datasets_unique.sdf']
930,CC1(C2CCCC2)Cc2cc(OCCCC(=O)[O-])c(Cl)c(Cl)c2C1=O,O,0,0,5.7,['5.7'],['combined_training_datasets_unique.sdf']
931,CC1(C2CCCC2)Cc2cc(OCc3ccc(C(=O)[O-])cc3)c(Cl)c(Cl)c2C1=O,O,0,0,6.2,['6.2'],['combined_training_datasets_unique.sdf']
932,CC1(Cc2ccccc2)Cc2cc(OCC(=O)[O-])c(Cl)c(Cl)c2C1=O,O,0,0,3.8,['3.8'],['combined_training_datasets_unique.sdf']
933,CC1(Cc2ccccc2)Cc2cc(OCCCC(=O)[O-])c(Cl)c(Cl)c2C1=O,O,0,0,6.3,['6.3'],['combined_training_datasets_unique.sdf']
934,CC1(O)CC[NH+](Cc2ccc(OC3CN(C(=O)c4nnc(-c5ccccc5)o4)C3)cc2)C1,O,0,0,9.0,['9.0'],['combined_training_datasets_unique.sdf']
935,CC1([N+](C)(C)C)CN(c2c(F)cc3c(=O)c(C(=O)[O-])cn(C4CC4)c3c2F)C1,O,0,0,6.03,['6.03'],['combined_training_datasets_unique.sdf']
936,CC1(c2cc(NC(=O)c3ccc(Cl)cn3)ccc2F)[NH+]=C(N)c2ccccc2O1,O,0,0,7.3,['7.3'],['combined_training_datasets_unique.sdf']
937,CC1(c2cccc(-c3cccc(Cl)c3)c2)[NH+]=C(N)CCO1,O,0,0,9.3,['9.3'],['combined_training_datasets_unique.sdf']
938,CC1(c2cccc(-c3cncnc3)c2)[NH+]=C(N)CCS1,O,0,0,9.1,['9.1'],['combined_training_datasets_unique.sdf']
939,CC1(c2cccc(-c3cncnc3)c2)[NH+]=C(N)c2c(F)cccc2O1,O,0,0,6.9,['6.9'],['combined_training_datasets_unique.sdf']
940,CC1(c2cccc(-c3cncnc3)c2)[NH+]=C(N)c2ccccc2O1,O,0,0,8.1,['8.1'],['combined_training_datasets_unique.sdf']
941,CC1(c2cccc(-c3cncnc3)c2)[NH+]=C(N)c2ccccc2S1,O,0,0,8.3,['8.3'],['combined_training_datasets_unique.sdf']
942,CC1(c2cccc(NC(=O)c3ccccn3)c2)CSC(N)=[NH+]1,O,0,0,8.3,['8.3'],['combined_training_datasets_unique.sdf']
943,CC1(c2ccccc2)COCC(N)=[NH+]1,O,0,0,9.8,['9.8'],['combined_training_datasets_unique.sdf']
944,CC1(c2ccccc2)Cc2cc(OCC(=O)[O-])c(Cl)c(Cl)c2C1=O,O,0,0,3.7,['3.7'],['combined_training_datasets_unique.sdf']
945,CC1(c2ccccc2)Cc2cc(OCCCC(=O)[O-])c(Cl)c(Cl)c2C1=O,O,0,0,6.4,['6.4'],['combined_training_datasets_unique.sdf']
946,CC12CC3(C)CC(C)(C1)CC([NH3+])(C2)C3,O,0,0,10.58,['10.58'],['combined_training_datasets_unique.sdf']
947,CC12CC3CC(C)(C1)CC([NH3+])(C3)C2,O,0,0,10.42,['10.42'],['combined_training_datasets_unique.sdf']
948,CC12CC3CC(C1)CC([NH3+])(C3)C2,O,0,0,10.56,['10.56'],['combined_training_datasets_unique.sdf']
949,CC12CCC(=O)C=C1c1c(cc(OCC(=O)[O-])c(Cl)c1Cl)C2,O,0,0,3.75,['3.75'],['combined_training_datasets_unique.sdf']
950,CC12C[NH+]3CC(C)(C1)CC(C)(C3)C2,O,0,0,10.7,['10.7'],['combined_training_datasets_unique.sdf']
951,CC1=C(/C=C/C(C)=C/C=C/C(C)=C/C(=O)[O-])C(C)(C)CCC1,O,0,0,4.51,['4.51'],['combined_training_datasets_unique.sdf']
952,CC1=C(C)C(C(C)C(=O)[O-])=CC1=O,O,0,0,3.1,['3.1'],['combined_training_datasets_unique.sdf']
953,CC1=C(C)C(C(C)C(=O)[O-])CC1=O,O,0,0,4.4,['4.4'],['combined_training_datasets_unique.sdf']
954,CC1=C(CC(=O)[O-])c2cc(F)ccc2/C1=C\c1ccc(S(C)=O)cc1,O,0,0,4.5,['4.5'],['combined_training_datasets_unique.sdf']
955,CC1=C(CC(C)[NH2+]CC(O)c2ccc(Br)cc2)CCC1(C)C,O,0,0,8.57,['8.57'],['combined_training_datasets_unique.sdf']
956,CC1=C(CC(C)[NH2+]CC(O)c2ccc(C)cc2)CCC1(C)C,O,0,0,8.71,['8.71'],['combined_training_datasets_unique.sdf']
957,CC1=C(CC(C)[NH2+]CC(O)c2ccc(Cl)cc2)CCC1(C)C,O,0,0,8.55,['8.55'],['combined_training_datasets_unique.sdf']
958,CC1=C(CC(C)[NH2+]CC(O)c2ccc(F)cc2)CCC1(C)C,O,0,0,8.51,['8.51'],['combined_training_datasets_unique.sdf']
959,CC1=C(CC(C)[NH2+]CC(O)c2ccccc2)CCC1(C)C,O,0,0,8.84,['8.84'],['combined_training_datasets_unique.sdf']
960,CC1=C([O-])C(Cc2ccc(Br)cc2)CC1=O,O,0,0,4.24,['4.24'],['combined_training_datasets_unique.sdf']
961,CC1=C([O-])C(Cc2ccccc2)CC1=O,O,0,0,4.47,['4.47'],['combined_training_datasets_unique.sdf']
962,CC1=C([O-])CC(C)(C)CC1=O,O,0,0,5.6,['5.6'],['combined_training_datasets_unique.sdf']
963,CC1=C([O-])CCC1=O,O,0,0,4.47,['4.47'],['combined_training_datasets_unique.sdf']
964,CC1=C([O-])c2ccccc2C1=O,O,0,0,6.17,['6.17'],['combined_training_datasets_unique.sdf']
965,CC1=CC=CC(C#N)[C@H]1c1cccc2c1-c1cccc3c1[C@@H](C2)[NH+](C)CC3,O,0,0,7.3,['7.3'],['combined_training_datasets_unique.sdf']
966,CC1=CCCC[NH+]1C,O,0,0,11.42,['11.42'],['combined_training_datasets_unique.sdf']
967,CC1=CCC[NH+]1C,O,0,0,11.94,['11.94'],['combined_training_datasets_unique.sdf']
968,CC1=CC[NH+]2CC[C@@H](O)[C@@H]12,O,0,0,9.6,['9.6'],['combined_training_datasets_unique.sdf']
969,CC1=CSC2=[NH+]CCCN12,O,0,0,10.31,['10.31'],['combined_training_datasets_unique.sdf']
970,CC1=CSC2=[NH+]CCN12,O,0,0,9.81,['9.81'],['combined_training_datasets_unique.sdf']
971,CC1=C[C@H]2CC[C@@H](O)[C@H]2[NH+]1C,O,0,0,11.7,['11.7'],['combined_training_datasets_unique.sdf']
972,CC1=C[NH+](C)CC1C,O,0,0,9.6,['9.6'],['combined_training_datasets_unique.sdf']
973,CC1=NCCCC1,O,0,0,9.57,['9.57'],['combined_training_datasets_unique.sdf']
974,CC1=NCCS1,O,0,0,5.29,['5.29'],['combined_training_datasets_unique.sdf']
975,CC1=NCCc2c1[nH]c1ccccc21,O,0,0,8.99,['8.99'],['combined_training_datasets_unique.sdf']
976,CC1=NN(c2ccc(OCCCCC(CO[N+](=O)[O-])O[N+](=O)[O-])cc2)C(=O)C1,O,0,0,7.15,['7.15'],['combined_training_datasets_unique.sdf']
977,CC1=NN(c2ccc(OCCCCCCO[N+](=O)[O-])cc2)C(=O)C1,O,0,0,7.12,['7.12'],['combined_training_datasets_unique.sdf']
978,CC1=NN(c2ccc(OCCCO[N+](=O)[O-])cc2)C(=O)C1,O,0,0,7.11,['7.11'],['combined_training_datasets_unique.sdf']
979,CC1=NN(c2ccc(OCCCOc3no[n+]([O-])c3-c3ccccc3)cc2)C(=O)C1,O,0,0,7.09,['7.09'],['combined_training_datasets_unique.sdf']
980,CC1=NN(c2ccc(OCCCOc3no[n+]([O-])c3S(=O)(=O)c3ccccc3)cc2)C(=O)C1,O,0,0,7.12,['7.12'],['combined_training_datasets_unique.sdf']
981,CC1=NN(c2ccc(OCc3no[n+]([O-])c3C#N)cc2)C(=O)C1,O,0,0,7.06,['7.06'],['combined_training_datasets_unique.sdf']
982,CC1=N[C@@](Cc2ccccc2)(c2cccc(-c3cncnc3)c2)[NH+]=C1N,O,0,0,6.0,['6.0'],['combined_training_datasets_unique.sdf']
983,CC1C(N=O)C[C@@H]2N=C(c3ccccc3)O[C@@]13[C@@H]1OC(=O)[C@H](C)[C@H]1CC[C@]23C,O,0,0,4.675,['4.675'],['combined_training_datasets_unique.sdf']
984,CC1C2c3ccccc3C(c3ccccc32)C1C(=O)Nc1ccccn1,O,0,0,5.27,['5.27'],['combined_training_datasets_unique.sdf']
985,CC1C2c3ccccc3C(c3ccccc32)C1C(=O)Nc1cccnc1,O,0,0,4.14,['4.14'],['combined_training_datasets_unique.sdf']
986,CC1C2c3ccccc3C(c3ccccc32)C1C(=O)Nc1ccncc1,O,0,0,5.27,['5.27'],['combined_training_datasets_unique.sdf']
987,CC1C2c3ccccc3C(c3ccccc32)C1C[NH+](C)C,O,0,0,8.99,['8.99'],['combined_training_datasets_unique.sdf']
988,CC1C=CC=C(C#N)[C@@H]1c1cccc2c1-c1cccc3c1[C@@H](C2)[NH+](C)CC3,O,0,0,7.3,['7.3'],['combined_training_datasets_unique.sdf']
989,CC1CC(=O)N(O)C1(C)C,O,0,0,8.85,['8.85'],['combined_training_datasets_unique.sdf']
990,CC1CC(C(=O)[O-])=[N+]([O-])C1(C)C,O,0,0,2.85,['2.85'],['combined_training_datasets_unique.sdf']
991,CC1CC(C)C([O-])=CC1=O,O,0,0,5.62,['5.62'],['combined_training_datasets_unique.sdf']
992,CC1CC(OCC(O)C[NH2+]C(C)(C)C)CC(C)(C)C1,O,0,0,9.94,['9.94'],['combined_training_datasets_unique.sdf']
993,CC1CC([O-])=CC(=O)O1,O,0,0,5.1,['5.1'],['combined_training_datasets_unique.sdf']
994,CC1CC2CC[NH+]1CC2,O,0,0,11.33,['11.33'],['combined_training_datasets_unique.sdf']
995,CC1CCC(O)(C(C(=O)[O-])c2ccc(-c3ccccc3)cc2)CC1,O,0,0,3.45,['3.45'],['combined_training_datasets_unique.sdf']
996,CC1CCCC(C(=O)[O-])c2nnnn21,O,0,0,3.3,['3.3'],['combined_training_datasets_unique.sdf']
997,CC1CCCC(C)(C)[NH+]1C,O,0,0,10.76,['10.76'],['combined_training_datasets_unique.sdf']
998,CC1CCCC(C)(C)[NH2+]1,O,0,0,11.27,['11.27'],['combined_training_datasets_unique.sdf']
999,CC1CCCC(C)C1C(=O)[O-],O,0,0,4.88,['4.88'],['combined_training_datasets_unique.sdf']
1000,CC1CCCCC1=N,O,0,0,9.38,['9.38'],['combined_training_datasets_unique.sdf']
1001,CC1CCCC[NH+]1C,O,0,0,10.26,['10.26'],['combined_training_datasets_unique.sdf']
1002,CC1CCCC[NH2+]1,O,0,0,10.98,['10.98'],['combined_training_datasets_unique.sdf']