,Solute SMILES,Solvent SMILES,Solute CAS,Solute IUPAC,pKa (avg),pKa (all),Source
4774,O=C(CCCCCCO[N+](=O)[O-])Oc1ccccc1C(=O)[O-],O,0,0,3.69,['3.69'],['combined_training_datasets_unique.sdf']
4775,O=C(CCCCCO[N+](=O)[O-])Oc1ccccc1C(=O)[O-],O,0,0,3.69,['3.69'],['combined_training_datasets_unique.sdf']
4776,O=C(CCCCO[N+](=O)[O-])Oc1ccccc1C(=O)[O-],O,0,0,3.69,['3.69'],['combined_training_datasets_unique.sdf']
4777,O=C(CCCC[NH+]1CCOCC1)c1ccccc1,O,0,0,7.5,['7.5'],['combined_training_datasets_unique.sdf']
4778,O=C(CCCC[P+](c1ccccc1)(c1ccccc1)c1ccccc1)NS(=O)(=O)c1ccccc1,O,0,0,5.12,['5.12'],['combined_training_datasets_unique.sdf']
4779,O=C(CCCO[N+](=O)[O-])Oc1ccccc1C(=O)[O-],O,0,0,3.69,['3.69'],['combined_training_datasets_unique.sdf']
4780,O=C(CCC[NH+]1CCC(O)(c2ccc(Cl)cc2)CC1)c1ccc(F)cc1,O,0,0,8.621,['8.621'],['combined_training_datasets_unique.sdf']
4781,O=C(CCC[NH+]1CCC(O)(c2ccccc2)CC1)c1ccccc1,O,0,0,8.4,['8.4'],['combined_training_datasets_unique.sdf']
4782,O=C(CCC[NH+]1CCOCC1)c1ccccc1,O,0,0,7.26,['7.26'],['combined_training_datasets_unique.sdf']
4783,O=C(CCO[N+](=O)[O-])Oc1ccccc1C(=O)[O-],O,0,0,3.69,['3.69'],['combined_training_datasets_unique.sdf']
4784,O=C(CCS(=O)(=O)c1ccc2cc(Cl)ccc2c1)N1CCC(c2c[nH+]c3ccccn23)CC1,O,0,0,5.9,['5.9'],['combined_training_datasets_unique.sdf']
4785,O=C(CCS(=O)(=O)c1ccc2cc(Cl)ccc2c1)N1CCC(c2c[nH+]c3n2CCCC3)CC1,O,0,0,8.2,['8.2'],['combined_training_datasets_unique.sdf']
4786,O=C(CCS(=O)(=O)c1ccc2cc(Cl)ccc2c1)N1CCC(c2cnc[nH]2)CC1,O,0,0,6.9,['6.9'],['combined_training_datasets_unique.sdf']
4787,O=C(CC[NH+]1CCCCC1)c1ccccc1,O,0,0,9.23,['9.23'],['combined_training_datasets_unique.sdf']
4788,O=C(CC[NH+]1CCOCC1)C(c1ccccc1)c1ccccc1,O,0,0,6.39,['6.39'],['combined_training_datasets_unique.sdf']
4789,O=C(CC[NH+]1CCOCC1)c1cccc(Br)c1,O,0,0,6.8,['6.8'],['combined_training_datasets_unique.sdf']
4790,O=C(CC[NH+]1CCOCC1)c1ccccc1,O,0,0,6.5,['6.5'],['combined_training_datasets_unique.sdf']
4791,O=C(CC[NH2+]CCC(=O)c1ccccc1)c1ccccc1,O,0,0,8.69,['8.69'],['combined_training_datasets_unique.sdf']
4792,O=C(CCc1c(Cl)cccc1Cl)N[C@H](Cc1cc2ccc(F)cc2[nH]1)C(=O)[O-],O,0,0,3.9,['3.9'],['combined_training_datasets_unique.sdf']
4793,O=C(CCc1ccccc1)NO,O,0,0,8.18,['8.18'],['combined_training_datasets_unique.sdf']
4794,O=C(CCl)Nc1nnc(-c2ccccc2)s1,O,0,0,6.9,['6.9'],['combined_training_datasets_unique.sdf']
4795,O=C(CNC(=O)c1[nH]ccc(=O)c1[O-])NCc1ccccc1,O,0,0,6.2,['6.2'],['combined_training_datasets_unique.sdf']
4796,O=C(C[NH+]1CCC(S(=O)(=O)c2ccccc2)CC1)c1ccc(F)cc1F,O,0,0,6.3,['6.3'],['combined_training_datasets_unique.sdf']
4797,O=C(C[NH+]1CCCCC1)NCc1ccccc1,O,0,0,7.71,['7.71'],['combined_training_datasets_unique.sdf']
4798,O=C(C[NH+]1CCCCC1)Nc1ccccc1,O,0,0,7.85,['7.85'],['combined_training_datasets_unique.sdf']
4799,O=C(C[NH+]1CCOCC1)NCc1ccccc1,O,0,0,4.98,['4.98'],['combined_training_datasets_unique.sdf']
4800,O=C(C[NH+]1CCOCC1)c1ccccc1,O,0,0,5.97,['5.97'],['combined_training_datasets_unique.sdf']
4801,O=C(Cc1ccc2ccc3cccnc3c2n1)c1ccccc1,O,0,0,4.4,['4.4'],['combined_training_datasets_unique.sdf']
4802,O=C(Cc1cccc2ccccc12)N[C@H](Cc1cc2ccc(F)cc2[nH]1)C(=O)[O-],O,0,0,3.91,['3.91'],['combined_training_datasets_unique.sdf']
4803,O=C(Cc1ccccc1)C(C[NH+]1CCOCC1)c1ccccc1,O,0,0,6.17,['6.17'],['combined_training_datasets_unique.sdf']
4804,O=C(Cc1ccccc1)NC1CC[NH+](CCCN2C(=O)COc3ccccc32)CC1,O,0,0,7.9,['7.9'],['combined_training_datasets_unique.sdf']
4805,O=C(Cc1ccccc1)NO,O,0,0,9.26,['9.26'],['combined_training_datasets_unique.sdf']
4806,O=C(Cc1ccccc1Nc1c(Cl)cccc1Cl)OCCCC[NH+]1CCOCC1,O,0,0,8.4,['8.4'],['combined_training_datasets_unique.sdf']
4807,O=C(Cc1ccccc1Nc1c(Cl)cccc1Cl)OCCC[NH+]1CCOCC1,O,0,0,7.99,['7.99'],['combined_training_datasets_unique.sdf']
4808,O=C(Cc1ccccc1Nc1c(Cl)cccc1Cl)OCC[NH+]1CCOCC1,O,0,0,7.52,['7.52'],['combined_training_datasets_unique.sdf']
4809,O=C(Cc1ccccn1)c1ccccc1,O,0,0,4.675,['4.675'],['combined_training_datasets_unique.sdf']
4810,O=C(Cc1cccnc1)c1ccccc1,O,0,0,6.5,['6.5'],['combined_training_datasets_unique.sdf']
4811,O=C(Cc1ccncc1)c1ccccc1,O,0,0,5.52,['5.52'],['combined_training_datasets_unique.sdf']
4812,O=C(N1CCC(c2ccncc2)CC1)N1CCN(S(=O)(=O)c2ccc(Cl)cc2)CC1,O,0,0,5.8,['5.8'],['combined_training_datasets_unique.sdf']
4813,O=C(N1CCN(c2cc[nH+]cc2Cl)CC1)N1CCN(S(=O)(=O)c2ccc(Cl)cc2)CC1,O,0,0,5.8,['5.8'],['combined_training_datasets_unique.sdf']
4814,O=C(N1CCOCC1)N1CCC(Oc2ccc3c(c2)CC[NH+](C2CCC2)CC3)CC1,O,0,0,9.2,['9.2'],['combined_training_datasets_unique.sdf']
4815,O=C(N=Cc1ccccn1)C1CCCC1C(=O)N1CCCC1,O,0,0,4.4,['4.4'],['combined_training_datasets_unique.sdf']
4816,O=C(NC1CCC([NH+]2CCCCC2)CC1)[C@H]1C[C@@H]1c1ccccc1,O,0,0,9.6,['9.6'],['combined_training_datasets_unique.sdf']
4817,O=C(NC1CCCCC1)C1=C([O-])CC(Cc2ccccc2)NC1=O,O,0,0,6.5,['6.5'],['combined_training_datasets_unique.sdf']
4818,O=C(NC1CC[NH+](CCc2c[nH]c3ccccc23)CC1)c1ccccc1,O,0,0,7.7,['7.7'],['combined_training_datasets_unique.sdf']
4819,O=C(NCC1CCCC1)c1cnc(Nc2ccc(Cl)cc2Cl)cc1C(F)(F)F,O,0,0,2.63,['2.63'],['combined_training_datasets_unique.sdf']
4820,O=C(NCC1CCCCC1)c1cnc(Nc2cccc(Cl)c2)cc1C(F)(F)F,O,0,0,2.63,['2.63'],['combined_training_datasets_unique.sdf']
4821,O=C(NCC1CCCC[NH2+]1)c1cc(OCC(F)(F)F)ccc1OCC(F)(F)F,O,0,0,9.295,['9.295'],['combined_training_datasets_unique.sdf']
4822,O=C(NCC1CCOCC1)c1cnc(Nc2ccc(Cl)cc2Cl)cc1C(F)(F)F,O,0,0,2.63,['2.63'],['combined_training_datasets_unique.sdf']
4823,O=C(NCC1CCOCC1)c1cnc(Nc2cccc(Cl)c2)cc1C(F)(F)F,O,0,0,2.63,['2.63'],['combined_training_datasets_unique.sdf']
4824,O=C(NCC1CCOCC1)c1cnc(Nc2cccc(F)c2)cc1C(F)(F)F,O,0,0,2.63,['2.63'],['combined_training_datasets_unique.sdf']
4825,O=C(NCCCC[NH+]1CCN(c2cccc(OCCF)c2)CC1)c1ccc2nonc2c1,O,0,0,7.47,['7.47'],['combined_training_datasets_unique.sdf']
4826,O=C(NCCCC[NH+]1CCN(c2ccccc2OCCF)CC1)c1ccc2nonc2c1,O,0,0,7.78,['7.78'],['combined_training_datasets_unique.sdf']
4827,O=C(NCCC[NH+]1CCOCC1)c1ccc(Cl)cc1,O,0,0,6.81,['6.81'],['combined_training_datasets_unique.sdf']
4828,O=C(NCCC[NH2+]C1CCCCC1)[C@H]1C[C@@H]1c1ccccc1,O,0,0,10.3,['10.3'],['combined_training_datasets_unique.sdf']
4829,O=C(NCC[NH+]1CCCC1)[C@H]1C[C@@H]1c1ccccc1,O,0,0,9.2,['9.2'],['combined_training_datasets_unique.sdf']
4830,O=C(NCC[NH+]1CCN(c2ccc(Cl)cc2)CC1)c1ccc(F)cc1,O,0,0,6.46,['6.46'],['combined_training_datasets_unique.sdf']
4831,O=C(NCC[NH+]1CCN(c2noc3ccccc23)CC1)c1ccc(F)cc1,O,0,0,6.43,['6.43'],['combined_training_datasets_unique.sdf']
4832,O=C(NCC[NH+]1CCOCC1)c1ccc(Cl)cc1,O,0,0,6.255,['6.255'],['combined_training_datasets_unique.sdf']
4833,O=C(NCCc1ccccn1)C1=CCCC1C(=O)N1CCCC1,O,0,0,4.4,['4.4'],['combined_training_datasets_unique.sdf']
4834,O=C(NCCc1cccnc1)C1=CCCC1C(=O)N1CCCC1,O,0,0,4.4,['4.4'],['combined_training_datasets_unique.sdf']
4835,O=C(NCCc1ccncc1)C1=CCCC1C(=O)N1CCCC1,O,0,0,4.4,['4.4'],['combined_training_datasets_unique.sdf']
4836,O=C(NCc1ccc(F)cc1)c1cnc(Nc2cccc(Br)c2)cc1C(F)(F)F,O,0,0,2.63,['2.63'],['combined_training_datasets_unique.sdf']
4837,O=C(NCc1ccc(S(=O)(=O)c2cc(F)cc(F)c2)cc1)c1ccc2nccn2c1,O,0,0,5.3,['5.3'],['combined_training_datasets_unique.sdf']
4838,O=C(NCc1cccnc1)C1=CCCC1C(=O)N1CCCC1,O,0,0,4.4,['4.4'],['combined_training_datasets_unique.sdf']
4839,O=C(NCc1ccncc1)C1=CCCC1C(=O)N1CCCC1,O,0,0,4.4,['4.4'],['combined_training_datasets_unique.sdf']
4840,O=C(NNc1ccc(Br)cc1)c1ccncc1,O,0,0,4.03,['4.03'],['combined_training_datasets_unique.sdf']
4841,O=C(NO)C1CCCCC1,O,0,0,9.87,['9.87'],['combined_training_datasets_unique.sdf']
4842,O=C(NO)Nc1ccccc1,O,0,0,10.3,['10.3'],['combined_training_datasets_unique.sdf']
4843,O=C(NO)c1cccc2ccccc12,O,0,0,7.7,['7.7'],['combined_training_datasets_unique.sdf']
4844,O=C(NO)c1ccccc1,O,0,0,8.71,['8.71'],['combined_training_datasets_unique.sdf']
4845,O=C(NO)c1ccccn1,O,0,0,8.6,['8.6'],['combined_training_datasets_unique.sdf']
4846,O=C(NOCCO)c1ccc2cncn2c1Nc1ccc(I)cc1F,O,0,0,4.3,['4.3'],['combined_training_datasets_unique.sdf']
4847,O=C(N[C@@H](Cc1ccccc1)C(=O)NCc1ccccc1)c1[nH]ccc(=O)c1[O-],O,0,0,6.0,['6.0'],['combined_training_datasets_unique.sdf']
4848,O=C(N[C@H](Cc1cc2ccc(F)cc2[nH]1)C(=O)[O-])c1ccc2ccccc2c1,O,0,0,3.92,['3.92'],['combined_training_datasets_unique.sdf']
4849,O=C(N[C@H]1C[C@@H]2CC[C@H](C1)[NH+]2Cc1ccccc1)c1cccc2c1OCCO2,O,0,0,8.68,['8.68'],['combined_training_datasets_unique.sdf']
4850,O=C(Nc1cc(Cl)ccc1O)OCC(Cl)Cl,O,0,0,10.4,['10.4'],['combined_training_datasets_unique.sdf']
4851,O=C(Nc1cc(Cl)ccc1O)Oc1cccc(C(F)(F)F)c1,O,0,0,8.97,['8.97'],['combined_training_datasets_unique.sdf']
4852,O=C(Nc1cc(Cl)ccc1O)Oc1cccc(Cl)c1,O,0,0,9.02,['9.02'],['combined_training_datasets_unique.sdf']
4853,O=C(Nc1cc(Cl)ccc1O)Oc1ccccc1,O,0,0,10.0,['10.0'],['combined_training_datasets_unique.sdf']
4854,O=C(Nc1ccc(Br)cc1C(=O)[O-])c1cccc(S(=O)(=O)N2CCOCC2)c1,O,0,0,2.79,['2.79'],['combined_training_datasets_unique.sdf']
4855,O=C(Nc1ccc(C(F)(F)F)nc1)C1=C([O-])CC(Cc2ccccc2)NC1=O,O,0,0,6.5,['6.5'],['combined_training_datasets_unique.sdf']
4856,O=C(Nc1ccc(C2CCCCC2)cc1)C1=C([O-])CC(C2CCCCC2)NC1=O,O,0,0,6.5,['6.5'],['combined_training_datasets_unique.sdf']
4857,O=C(Nc1ccc(C2CCCCC2)cc1)C1=C([O-])CC(Cc2ccccc2)NC1=O,O,0,0,6.5,['6.5'],['combined_training_datasets_unique.sdf']
4858,O=C(Nc1ccc(C2CCCCC2)cc1)C1=C([O-])CC(c2ccccc2)NC1=O,O,0,0,6.5,['6.5'],['combined_training_datasets_unique.sdf']
4859,O=C(Nc1ccc(C2CCCCC2)cc1)C1=C([O-])C[C@@H](c2ccccc2)NC1=O,O,0,0,6.5,['6.5'],['combined_training_datasets_unique.sdf']
4860,O=C(Nc1ccc(C2CCCCC2)cc1)C1=C([O-])C[C@H](c2ccccc2)NC1=O,O,0,0,6.5,['6.5'],['combined_training_datasets_unique.sdf']
4861,O=C(Nc1ccc(Cl)cc1C(=O)[O-])c1cccc(S(=O)(=O)N2CCOCC2)c1,O,0,0,2.81,['2.81'],['combined_training_datasets_unique.sdf']
4862,O=C(Nc1ccc(F)cc1C(=O)[O-])c1cccc(S(=O)(=O)N2CCOCC2)c1,O,0,0,2.92,['2.92'],['combined_training_datasets_unique.sdf']
4863,O=C(Nc1ccc(Nc2c3ccccc3nc3ccccc23)cc1)c1ccccc1,O,0,0,7.39,['7.39'],['combined_training_datasets_unique.sdf']
4864,O=C(Nc1ccc(Nc2ccccc2)cc1)C1=C([O-])CC(Cc2ccccc2)NC1=O,O,0,0,6.5,['6.5'],['combined_training_datasets_unique.sdf']
4865,O=C(Nc1ccc(Oc2ccccc2)cc1)C1=C([O-])CC(Cc2ccccc2)NC1=O,O,0,0,6.5,['6.5'],['combined_training_datasets_unique.sdf']
4866,O=C(Nc1ccc(S(=O)(=O)c2ccccc2)cc1)C1=C([O-])CC(Cc2ccccc2)NC1=O,O,0,0,6.5,['6.5'],['combined_training_datasets_unique.sdf']
4867,O=C(Nc1cccc(OCc2cc(F)cc(F)c2)c1)C1CCN(c2cc[nH+]cc2)CC1,O,0,0,9.2,['9.2'],['combined_training_datasets_unique.sdf']
4868,O=C(Nc1cccc(OCc2ccc(F)cc2)c1)C1CCN(c2cc[nH+]cc2)CC1,O,0,0,8.9,['8.9'],['combined_training_datasets_unique.sdf']
4869,O=C(Nc1cccc(OCc2ccc(F)cc2)c1)C1CCN(c2ccccn2)CC1,O,0,0,8.5,['8.5'],['combined_training_datasets_unique.sdf']
4870,O=C(Nc1cccc(OCc2ccc(F)cc2)c1)C1CCN(c2ncccn2)CC1,O,0,0,6.0,['6.0'],['combined_training_datasets_unique.sdf']
4871,O=C(Nc1cccc(OCc2ccc(F)cc2)c1)C1CC[NH2+]CC1,O,0,0,9.8,['9.8'],['combined_training_datasets_unique.sdf']
4872,O=C(Nc1cccc(OCc2ccc3c(c2)OCO3)c1)C1CCN(c2cc[nH+]cc2)CC1,O,0,0,9.1,['9.1'],['combined_training_datasets_unique.sdf']
4873,O=C(Nc1cccc(OCc2cccc(F)c2)c1)C1CCN(c2cc[nH+]cc2)CC1,O,0,0,9.0,['9.0'],['combined_training_datasets_unique.sdf']
4874,O=C(Nc1cccc(OCc2ccccc2F)c1)C1CCN(c2cc[nH+]cc2)CC1,O,0,0,9.2,['9.2'],['combined_training_datasets_unique.sdf']
4875,O=C(Nc1ccccc1C(=O)[O-])c1cccc(S(=O)(=O)N2CCOCC2)c1,O,0,0,3.18,['3.18'],['combined_training_datasets_unique.sdf']
4876,O=C(Nc1ccccn1)c1ccccc1,O,0,0,3.33,['3.33'],['combined_training_datasets_unique.sdf']
4877,O=C(Nc1cccnc1)c1ccccc1,O,0,0,3.8,['3.8'],['combined_training_datasets_unique.sdf']
4878,O=C(Nc1ccncc1)c1ccccc1,O,0,0,5.32,['5.32'],['combined_training_datasets_unique.sdf']
4879,O=C(OCc1ccccc1)c1ccc(O)cc1,O,0,0,8.31,['8.31'],['combined_training_datasets_unique.sdf']
4880,O=C(OCc1ccccc1)c1cccnc1,O,0,0,3.94,['3.94'],['combined_training_datasets_unique.sdf']
4881,O=C(OO)c1ccccc1,O,0,0,7.3,['7.3'],['combined_training_datasets_unique.sdf']
4882,O=C(O[C@@H]1C[C@@H]2[NH2+][C@H](C1)[C@@H]1O[C@H]21)[C@H](CO)c1ccccc1,O,0,0,7.09,['7.09'],['combined_training_datasets_unique.sdf']
4883,O=C(O[C@H]1C[C@@H]2CC[C@H](C1)[NH2+]2)[C@H](CO)c1ccccc1,O,0,0,10.28,['10.28'],['combined_training_datasets_unique.sdf']
4884,O=C(O[C@H]1O[C@@H](C(=O)[O-])[C@H](O)[C@@H](O)[C@@H]1O)c1ccccc1,O,0,0,2.85,['2.85'],['combined_training_datasets_unique.sdf']
4885,O=C(Oc1ccc(Cl)cc1)C1c2ccccc2-c2ccccc21,O,0,0,10.32,['10.32'],['combined_training_datasets_unique.sdf']
4886,O=C(Oc1cccc(Cl)c1)C1c2ccccc2-c2ccccc21,O,0,0,10.24,['10.24'],['combined_training_datasets_unique.sdf']
4887,O=C([C@H]1C[C@@H]1c1ccccc1)N1CCC([NH+]2CCCC2)CC1,O,0,0,9.3,['9.3'],['combined_training_datasets_unique.sdf']
4888,O=C([C@H]1C[C@@H]1c1ccccc1)N1CCC([NH+]2CCCCC2)CC1,O,0,0,9.3,['9.3'],['combined_training_datasets_unique.sdf']
4889,O=C([O-])/C(I)=C/c1ccccc1,O,0,0,3.3,['3.3'],['combined_training_datasets_unique.sdf']
4890,O=C([O-])/C(I)=C\c1ccccc1,O,0,0,2.24,['2.24'],['combined_training_datasets_unique.sdf']
4891,O=C([O-])/C=C(\I)c1ccccc1,O,0,0,3.4,['3.4'],['combined_training_datasets_unique.sdf']
4892,O=C([O-])/C=C/C(=O)c1ccccc1,O,0,0,3.34,['3.34'],['combined_training_datasets_unique.sdf']
4893,O=C([O-])/C=C/CCl,O,0,0,4.14,['4.14'],['combined_training_datasets_unique.sdf']
4894,O=C([O-])/C=C/SC1CCCCC1,O,0,0,4.7,['4.7'],['combined_training_datasets_unique.sdf']
4895,O=C([O-])/C=C/c1ccc2c(c1)OCO2,O,0,0,4.6,['4.6'],['combined_training_datasets_unique.sdf']
4896,O=C([O-])/C=C/c1cccc(C(F)(F)F)c1,O,0,0,4.6,['4.6'],['combined_training_datasets_unique.sdf']
4897,O=C([O-])/C=C/c1cccc(Cl)c1,O,0,0,4.8,['4.8'],['combined_training_datasets_unique.sdf']
4898,O=C([O-])/C=C/c1ccccc1,O,0,0,4.425,['4.425'],['combined_training_datasets_unique.sdf']
4899,O=C([O-])/C=C/c1ccco1,O,0,0,4.29,['4.29'],['combined_training_datasets_unique.sdf']
4900,O=C([O-])/C=C/c1cccs1,O,0,0,4.25,['4.25'],['combined_training_datasets_unique.sdf']
4901,O=C([O-])/C=C/c1ccoc1,O,0,0,4.31,['4.31'],['combined_training_datasets_unique.sdf']
4902,O=C([O-])/C=C\SC1CCCCC1,O,0,0,4.95,['4.95'],['combined_training_datasets_unique.sdf']
4903,O=C([O-])/C=C\c1cccc(Cl)c1,O,0,0,3.71,['3.71'],['combined_training_datasets_unique.sdf']
4904,O=C([O-])/C=C\c1ccccc1,O,0,0,3.88,['3.88'],['combined_training_datasets_unique.sdf']
4905,O=C([O-])C#COc1ccccc1,O,0,0,3.09,['3.09'],['combined_training_datasets_unique.sdf']
4906,O=C([O-])C#CSc1ccccc1,O,0,0,2.11,['2.11'],['combined_training_datasets_unique.sdf']
4907,O=C([O-])C#Cc1ccccc1,O,0,0,2.26,['2.26'],['combined_training_datasets_unique.sdf']
4908,O=C([O-])C(=O)C(c1ccccc1)c1ccccc1,O,0,0,2.78,['2.78'],['combined_training_datasets_unique.sdf']
4909,O=C([O-])C(=O)Cc1ccccc1,O,0,0,2.68,['2.68'],['combined_training_datasets_unique.sdf']
4910,O=C([O-])C(CO)c1ccccc1,O,0,0,4.23,['4.23'],['combined_training_datasets_unique.sdf']
4911,O=C([O-])C(F)c1ccccc1,O,0,0,2.45,['2.45'],['combined_training_datasets_unique.sdf']
4912,O=C([O-])C(O)(c1ccccc1)c1ccccc1,O,0,0,3.05,['3.05'],['combined_training_datasets_unique.sdf']
4913,O=C([O-])C(O)c1ccccc1,O,0,0,4.865,['4.865'],['combined_training_datasets_unique.sdf']
4914,O=C([O-])C(c1ccc(-c2ccccc2)cc1)C(O)C1CCCCC1,O,0,0,4.19,['4.19'],['combined_training_datasets_unique.sdf']
4915,O=C([O-])C(c1ccc(-c2ccccc2)cc1)C(O)Cc1ccccc1,O,0,0,4.29,['4.29'],['combined_training_datasets_unique.sdf']
4916,O=C([O-])C(c1ccc(-c2ccccc2)cc1)C(O)c1ccccc1,O,0,0,4.25,['4.25'],['combined_training_datasets_unique.sdf']
4917,O=C([O-])C(c1ccc(-c2ccccc2)cc1)C1(O)CCCC1,O,0,0,3.65,['3.65'],['combined_training_datasets_unique.sdf']
4918,O=C([O-])C(c1ccc(-c2ccccc2)cc1)C1(O)CCCCC1,O,0,0,3.59,['3.59'],['combined_training_datasets_unique.sdf']
4919,O=C([O-])C(c1ccc(C2CCCCC2)cc1)C(O)c1ccccc1,O,0,0,4.24,['4.24'],['combined_training_datasets_unique.sdf']
4920,O=C([O-])C1(O)CCC1,O,0,0,3.88,['3.88'],['combined_training_datasets_unique.sdf']
4921,O=C([O-])C1(O)CCCC1,O,0,0,4.11,['4.11'],['combined_training_datasets_unique.sdf']
4922,O=C([O-])C1(O)CCCCC1,O,0,0,4.18,['4.18'],['combined_training_datasets_unique.sdf']
4923,O=C([O-])C1(O)CCCCCC1,O,0,0,4.04,['4.04'],['combined_training_datasets_unique.sdf']
4924,O=C([O-])C1(O)c2ccccc2-c2ccccc21,O,0,0,2.92,['2.92'],['combined_training_datasets_unique.sdf']
4925,O=C([O-])C12CC3(F)CC(F)(CC(F)(C3)C1)C2,O,0,0,3.24,['3.24'],['combined_training_datasets_unique.sdf']
4926,O=C([O-])C12CC3CC(CC(C3)C1)C2,O,0,0,4.95,['4.95'],['combined_training_datasets_unique.sdf']
4927,O=C([O-])C12CC3CC(CC(F)(C3)C1)C2,O,0,0,4.22,['4.22'],['combined_training_datasets_unique.sdf']
4928,O=C([O-])C12CCC(C1)C2,O,0,0,3.96,['3.96'],['combined_training_datasets_unique.sdf']
4929,O=C([O-])C12CCC(CC1)C2,O,0,0,4.89,['4.89'],['combined_training_datasets_unique.sdf']
4930,O=C([O-])C12CCC(O)(CC1)CC2,O,0,0,6.33,['6.33'],['combined_training_datasets_unique.sdf']
4931,O=C([O-])C1=C(CO)CC1,O,0,0,4.16,['4.16'],['combined_training_datasets_unique.sdf']
4932,O=C([O-])C1=C(CO)CCC1,O,0,0,4.54,['4.54'],['combined_training_datasets_unique.sdf']
4933,O=C([O-])C1=C/C=C\C=C/C=C\1,O,0,0,4.4,['4.4'],['combined_training_datasets_unique.sdf']
4934,O=C([O-])C1C2CCC1CC2,O,0,0,4.85,['4.85'],['combined_training_datasets_unique.sdf']
4935,O=C([O-])C1C=Cc2ccccc21,O,0,0,3.92,['3.92'],['combined_training_datasets_unique.sdf']
4936,O=C([O-])C1CC1,O,0,0,4.83,['4.83'],['combined_training_datasets_unique.sdf']
4937,O=C([O-])C1CC1(Br)Br,O,0,0,3.57,['3.57'],['combined_training_datasets_unique.sdf']
4938,O=C([O-])C1CC1(Cl)Cl,O,0,0,3.51,['3.51'],['combined_training_datasets_unique.sdf']
4939,O=C([O-])C1CCC1,O,0,0,4.79,['4.79'],['combined_training_datasets_unique.sdf']
4940,O=C([O-])C1CCCC1,O,0,0,4.99,['4.99'],['combined_training_datasets_unique.sdf']
4941,O=C([O-])C1CCCCC1,O,0,0,4.89,['4.89'],['combined_training_datasets_unique.sdf']
4942,O=C([O-])C1CCCCO1,O,0,0,3.84,['3.84'],['combined_training_datasets_unique.sdf']
4943,O=C([O-])C1CCCCn2nnnc21,O,0,0,3.4,['3.4'],['combined_training_datasets_unique.sdf']
4944,O=C([O-])C1CCCOC1,O,0,0,4.25,['4.25'],['combined_training_datasets_unique.sdf']
4945,O=C([O-])C1CCC[NH2+]1,O,0,0,10.61,['10.61'],['combined_training_datasets_unique.sdf']
4946,O=C([O-])C1CCCc2ccccc2O1,O,0,0,3.63,['3.63'],['combined_training_datasets_unique.sdf']
4947,O=C([O-])C1CCOc2ccc(Cl)cc21,O,0,0,4.9,['4.9'],['combined_training_datasets_unique.sdf']
4948,O=C([O-])C1CC[NH2+]1,O,0,0,9.54,['9.54'],['combined_training_datasets_unique.sdf']
4949,O=C([O-])C1CCc2ccccc2O1,O,0,0,3.38,['3.38'],['combined_training_datasets_unique.sdf']
4950,O=C([O-])C1COCCO1,O,0,0,3.15,['3.15'],['combined_training_datasets_unique.sdf']
4951,O=C([O-])C1Cc2ccccc2O1,O,0,0,3.25,['3.25'],['combined_training_datasets_unique.sdf']
4952,O=C([O-])C1SCc2ccccc21,O,0,0,5.32,['5.32'],['combined_training_datasets_unique.sdf']
4953,O=C([O-])C1c2ccccc2-c2ccccc21,O,0,0,2.765,['2.765'],['combined_training_datasets_unique.sdf']
4954,O=C([O-])C1c2ccccc2Oc2ccccc21,O,0,0,3.89,['3.89'],['combined_training_datasets_unique.sdf']
4955,O=C([O-])C=C=Cc1ccccc1,O,0,0,3.7,['3.7'],['combined_training_datasets_unique.sdf']
4956,O=C([O-])CBr,O,0,0,2.87,['2.87'],['combined_training_datasets_unique.sdf']
4957,O=C([O-])CC#Cc1ccccc1,O,0,0,3.44,['3.44'],['combined_training_datasets_unique.sdf']
4958,O=C([O-])CC(F)(F)F,O,0,0,3.06,['3.06'],['combined_training_datasets_unique.sdf']
4959,O=C([O-])CC(O)c1ccccc1,O,0,0,4.4,['4.4'],['combined_training_datasets_unique.sdf']
4960,O=C([O-])CC(c1ccccc1)c1ccccc1Cl,O,0,0,4.7,['4.7'],['combined_training_datasets_unique.sdf']
4961,O=C([O-])CC1CCCCC1,O,0,0,4.8,['4.8'],['combined_training_datasets_unique.sdf']
4962,O=C([O-])CC1CCCCO1,O,0,0,4.39,['4.39'],['combined_training_datasets_unique.sdf']
4963,O=C([O-])CC1NC(=O)c2ccccc2O1,O,0,0,4.9,['4.9'],['combined_training_datasets_unique.sdf']
4964,O=C([O-])CCBr,O,0,0,3.86,['3.86'],['combined_training_datasets_unique.sdf']
4965,O=C([O-])CCC(=O)c1ccc(-c2ccccc2)cc1,O,0,0,4.46,['4.46'],['combined_training_datasets_unique.sdf']
4966,O=C([O-])CCC(=O)c1ccc2ccccc2c1,O,0,0,4.96,['4.96'],['combined_training_datasets_unique.sdf']
4967,O=C([O-])CCC(=O)c1cccc2ccccc12,O,0,0,4.48,['4.48'],['combined_training_datasets_unique.sdf']
4968,O=C([O-])CCC1CCCCC1,O,0,0,4.91,['4.91'],['combined_training_datasets_unique.sdf']