,Solute SMILES,Solvent SMILES,Solute CAS,Solute IUPAC,pKa (avg),pKa (all),Source
4355,N#Cc1ncnc2nc[nH]c12,O,0,0,6.88,['6.88'],['combined_training_datasets_unique.sdf']
4356,N/C=[NH+]/O,O,0,0,5.05,['5.05'],['combined_training_datasets_unique.sdf']
4357,N=C(SCc1ccccc1)c1ccccc1,O,0,0,4.43,['4.43'],['combined_training_datasets_unique.sdf']
4358,N=C(Sc1ccccc1)c1ccccc1,O,0,0,4.48,['4.48'],['combined_training_datasets_unique.sdf']
4359,N=C(c1ccccc1)c1cccc(Cl)c1,O,0,0,5.69,['5.69'],['combined_training_datasets_unique.sdf']
4360,N=C(c1ccccc1)c1ccccc1,O,0,0,6.82,['6.82'],['combined_training_datasets_unique.sdf']
4361,N=C(c1ccccc1)c1ccccc1Cl,O,0,0,5.59,['5.59'],['combined_training_datasets_unique.sdf']
4362,N=C1CCCC1,O,0,0,8.95,['8.95'],['combined_training_datasets_unique.sdf']
4363,N=C1CCCCC1,O,0,0,9.15,['9.15'],['combined_training_datasets_unique.sdf']
4364,N=C1CCCc2c1c(=O)c(=NS(=O)(=O)c1ccccc1)c(=Nc1ccccc1)c2=O,O,0,0,8.2,['8.2'],['combined_training_datasets_unique.sdf']
4365,NC(=O)C#CC#C/C=C/C(=O)[O-],O,0,0,3.52,['3.52'],['combined_training_datasets_unique.sdf']
4366,NC(=O)C(CC(=O)[O-])c1ccccc1,O,0,0,4.23,['4.23'],['combined_training_datasets_unique.sdf']
4367,NC(=O)C(CCC(=O)[O-])c1ccccc1,O,0,0,4.64,['4.64'],['combined_training_datasets_unique.sdf']
4368,NC(=O)C(CCCCC(=O)[O-])c1ccccc1,O,0,0,4.79,['4.79'],['combined_training_datasets_unique.sdf']
4369,NC(=O)C(N)=S,O,0,0,11.5,['11.5'],['combined_training_datasets_unique.sdf']
4370,NC(=O)C([NH3+])CO,O,0,0,7.3,['7.3'],['combined_training_datasets_unique.sdf']
4371,NC(=O)C([NH3+])Cc1c[nH]c2ccccc12,O,0,0,7.55,['7.55'],['combined_training_datasets_unique.sdf']
4372,NC(=O)C([NH3+])Cc1ccccc1,O,0,0,7.33,['7.33'],['combined_training_datasets_unique.sdf']
4373,NC(=O)C(c1ccccc1)c1ccccn1,O,0,0,3.8,['3.8'],['combined_training_datasets_unique.sdf']
4374,NC(=O)C1CC2CC[NH+]1CC2,O,0,0,9.04,['9.04'],['combined_training_datasets_unique.sdf']
4375,NC(=O)C1CCCC[NH2+]1,O,0,0,8.9,['8.9'],['combined_training_datasets_unique.sdf']
4376,NC(=O)C1CCN(c2c(Cl)c[nH+]cc2Cl)CC1,O,0,0,3.5,['3.5'],['combined_training_datasets_unique.sdf']
4377,NC(=O)C1CCN(c2c(S(=O)(=O)c3ccccc3)c[nH+]c3ccc(Cl)cc23)CC1,O,0,0,3.05,['3.05'],['combined_training_datasets_unique.sdf']
4378,NC(=O)C1C[NH+]2CCC1CC2,O,0,0,9.74,['9.74'],['combined_training_datasets_unique.sdf']
4379,NC(=O)CC(=O)[O-],O,0,0,3.61,['3.61'],['combined_training_datasets_unique.sdf']
4380,NC(=O)CCCCCCCCC(=O)NO,O,0,0,9.49,['9.49'],['combined_training_datasets_unique.sdf']
4381,NC(=O)CCCCCCCCc1ccc(Nc2c3ccccc3nc3ccccc23)cc1,O,0,0,7.7,['7.7'],['combined_training_datasets_unique.sdf']
4382,NC(=O)CCCCCCCc1ccc(Nc2c3ccccc3nc3ccccc23)cc1,O,0,0,7.7,['7.7'],['combined_training_datasets_unique.sdf']
4383,NC(=O)CCCCCCc1ccc(Nc2c3ccccc3nc3ccccc23)cc1,O,0,0,7.7,['7.7'],['combined_training_datasets_unique.sdf']
4384,NC(=O)CCCCCc1ccc(Nc2c3ccccc3nc3ccccc23)cc1,O,0,0,7.7,['7.7'],['combined_training_datasets_unique.sdf']
4385,NC(=O)CCCCc1ccc(Nc2c3ccccc3nc3ccccc23)cc1,O,0,0,7.7,['7.7'],['combined_training_datasets_unique.sdf']
4386,NC(=O)CCCCc1ccccn1,O,0,0,5.73,['5.73'],['combined_training_datasets_unique.sdf']
4387,NC(=O)CCCCc1cccnc1,O,0,0,5.6,['5.6'],['combined_training_datasets_unique.sdf']
4388,NC(=O)CCCCc1ccncc1,O,0,0,5.92,['5.92'],['combined_training_datasets_unique.sdf']
4389,NC(=O)CCCc1ccc(Nc2c3ccccc3nc3ccccc23)cc1,O,0,0,7.67,['7.67'],['combined_training_datasets_unique.sdf']
4390,NC(=O)CCCc1ccccn1,O,0,0,5.48,['5.48'],['combined_training_datasets_unique.sdf']
4391,NC(=O)CCCc1cccnc1,O,0,0,5.33,['5.33'],['combined_training_datasets_unique.sdf']
4392,NC(=O)CCCc1ccncc1,O,0,0,5.64,['5.64'],['combined_training_datasets_unique.sdf']
4393,NC(=O)CC[NH+]1CCC[C@H](OCc2cc(C(F)(F)F)cc(C(F)(F)F)c2)[C@@H]1c1ccccc1,O,0,0,6.5,['6.5'],['combined_training_datasets_unique.sdf']
4394,NC(=O)CCc1ccc(Nc2c3ccccc3nc3ccccc23)cc1,O,0,0,7.63,['7.63'],['combined_training_datasets_unique.sdf']
4395,NC(=O)CCc1ccccn1,O,0,0,5.09,['5.09'],['combined_training_datasets_unique.sdf']
4396,NC(=O)CCc1cccnc1,O,0,0,5.21,['5.21'],['combined_training_datasets_unique.sdf']
4397,NC(=O)CCc1ccncc1,O,0,0,5.58,['5.58'],['combined_training_datasets_unique.sdf']
4398,NC(=O)CN1CC[NH+]([C@@H](COCc2cc(C(F)(F)F)cc(C(F)(F)F)c2)c2ccccc2)CC1,O,0,0,6.2,['6.2'],['combined_training_datasets_unique.sdf']
4399,NC(=O)CN1CC[NH+]([C@H](COCc2cc(C(F)(F)F)cc(C(F)(F)F)c2)c2ccccc2)CC1,O,0,0,6.2,['6.2'],['combined_training_datasets_unique.sdf']
4400,NC(=O)COCCN1CC[NH+](C(COCc2cc(C(F)(F)F)cc(C(F)(F)F)c2)c2ccccc2)CC1,O,0,0,7.4,['7.4'],['combined_training_datasets_unique.sdf']
4401,NC(=O)CS,O,0,0,8.22,['8.22'],['combined_training_datasets_unique.sdf']
4402,NC(=O)CS(=O)(=O)NC(N)=O,O,0,0,5.05,['5.05'],['combined_training_datasets_unique.sdf']
4403,NC(=O)CS(N)(=O)=O,O,0,0,9.7,['9.7'],['combined_training_datasets_unique.sdf']
4404,NC(=O)C[C@H]([NH3+])C(N)=O,O,0,0,7.0,['7.0'],['combined_training_datasets_unique.sdf']
4405,NC(=O)C[NH+]1CCC[C@H](OCc2cc(C(F)(F)F)cc(C(F)(F)F)c2)[C@@H]1c1ccccc1,O,0,0,5.4,['5.4'],['combined_training_datasets_unique.sdf']
4406,NC(=O)C[NH2+]C1CCC(OCc2cc(C(F)(F)F)cc(C(F)(F)F)c2)C1c1ccccc1,O,0,0,6.6,['6.6'],['combined_training_datasets_unique.sdf']
4407,NC(=O)C[NH2+][C@@H]1CC[C@H](OCc2cc(C(F)(F)F)cc(C(F)(F)F)c2)[C@H]1c1ccccc1,O,0,0,6.6,['6.6'],['combined_training_datasets_unique.sdf']
4408,NC(=O)C[NH3+],O,0,0,8.05,['8.05'],['combined_training_datasets_unique.sdf']
4409,NC(=O)Cc1ccc(C(=O)[O-])cc1,O,0,0,4.06,['4.06'],['combined_training_datasets_unique.sdf']
4410,NC(=O)Cc1ccc(Nc2c3ccccc3nc3ccccc23)cc1,O,0,0,7.43,['7.43'],['combined_training_datasets_unique.sdf']
4411,NC(=O)Cc1ccccn1,O,0,0,4.34,['4.34'],['combined_training_datasets_unique.sdf']
4412,NC(=O)Cc1cccnc1,O,0,0,4.72,['4.72'],['combined_training_datasets_unique.sdf']
4413,NC(=O)Cc1ccncc1,O,0,0,5.08,['5.08'],['combined_training_datasets_unique.sdf']
4414,NC(=O)NO,O,0,0,10.65,['10.65'],['combined_training_datasets_unique.sdf']
4415,NC(=O)[C@@H](O)[C@H]([NH3+])C(=O)[O-],O,0,0,8.26,['8.26'],['combined_training_datasets_unique.sdf']
4416,NC(=O)[C@@H]([NH3+])Cc1ccccc1,O,0,0,7.26,['7.26'],['combined_training_datasets_unique.sdf']
4417,NC(=O)[C@@H]1CCC[NH2+]1,O,0,0,8.82,['8.82'],['combined_training_datasets_unique.sdf']
4418,NC(=O)[C@H](CCC(=O)[O-])NC=O,O,0,0,4.3,['4.3'],['combined_training_datasets_unique.sdf']
4419,NC(=O)c1ccc(CNC(=O)c2cnc(Nc3cccc(Cl)c3)cc2C(F)(F)F)cc1,O,0,0,2.63,['2.63'],['combined_training_datasets_unique.sdf']
4420,NC(=O)c1ccc(Nc2c3ccccc3nc3ccccc23)cc1,O,0,0,6.47,['6.47'],['combined_training_datasets_unique.sdf']
4421,NC(=O)c1ccccc1C(=O)[O-],O,0,0,3.75,['3.75'],['combined_training_datasets_unique.sdf']
4422,NC(=O)c1ccccc1O,O,0,0,8.61,['8.61'],['combined_training_datasets_unique.sdf']
4423,NC(=O)c1cccnc1,O,0,0,3.32,['3.32'],['combined_training_datasets_unique.sdf']
4424,NC(=O)c1ccncc1,O,0,0,3.57,['3.57'],['combined_training_datasets_unique.sdf']
4425,NC(=O)c1cncc2ccccc12,O,0,0,3.8,['3.8'],['combined_training_datasets_unique.sdf']
4426,NC(=O)c1noc([C@H](CCCC2CCCCC2)CC(=O)NO)n1,O,0,0,9.0,['9.0'],['combined_training_datasets_unique.sdf']
4427,NC(=S)C(N)=S,O,0,0,10.89,['10.89'],['combined_training_datasets_unique.sdf']
4428,NC(=S)C[NH3+],O,0,0,7.27,['7.27'],['combined_training_datasets_unique.sdf']
4429,NC(=[NH+]Cc1c[nH]c2ccccc12)C(Cl)(Cl)Cl,O,0,0,6.0,['6.0'],['combined_training_datasets_unique.sdf']
4430,NC(=[NH+]c1nsc2ccccc12)c1ccc(Cl)cc1,O,0,0,4.84,['4.84'],['combined_training_datasets_unique.sdf']
4431,NC(=[NH+]c1nsc2ccccc12)c1ccccc1,O,0,0,5.4,['5.4'],['combined_training_datasets_unique.sdf']
4432,NC(=[NH2+])N(CC1CC1)c1c(Br)cccc1Br,O,0,0,11.9,['11.9'],['combined_training_datasets_unique.sdf']
4433,NC(=[NH2+])N(c1ccccc1)c1ccccc1,O,0,0,10.42,['10.42'],['combined_training_datasets_unique.sdf']
4434,NC(=[NH2+])N1C2CC(OC(=O)C(CO)c3ccccc3)CC1C1OC12,O,0,0,10.84,['10.84'],['combined_training_datasets_unique.sdf']
4435,NC(=[NH2+])N1C2CCC1CC(OC(=O)C(CO)c1ccccc1)C2,O,0,0,11.6,['11.6'],['combined_training_datasets_unique.sdf']
4436,NC(=[NH2+])N=NCc1ccc(Cl)c(Cl)c1,O,0,0,8.4,['8.4'],['combined_training_datasets_unique.sdf']
4437,NC(=[NH2+])NC(=O)c1ccccc1,O,0,0,6.98,['6.98'],['combined_training_datasets_unique.sdf']
4438,NC(=[NH2+])Oc1ccccc1,O,0,0,8.29,['8.29'],['combined_training_datasets_unique.sdf']
4439,NC(=[NH2+])c1ccccc1,O,0,0,11.8,['11.8'],['combined_training_datasets_unique.sdf']
4440,NC(N)=[NH+]c1ccccc1,O,0,0,10.835,['10.835'],['combined_training_datasets_unique.sdf']
4441,NC(N)=[NH+]c1nccc(-c2csc(N)n2)n1,O,0,0,9.2,['9.2'],['combined_training_datasets_unique.sdf']
4442,NC(Nc1ccccc1)=[NH+]c1ccccc1,O,0,0,9.94,['9.94'],['combined_training_datasets_unique.sdf']
4443,NC1=NS(=O)N=C1Nc1cccc(-c2csc([NH+]=C(N)N)n2)c1,O,0,0,7.55,['7.55'],['combined_training_datasets_unique.sdf']
4444,NC1=[NH+]C(c2ccc(OC(F)F)cc2)(c2cccc(-c3cncnc3)c2)C2=[NH+]CC(F)(F)CN12,O,0,0,6.1,['6.1'],['combined_training_datasets_unique.sdf']
4445,NC1=[NH+]C(c2ccc(OC(F)F)cc2)(c2cccc(OCCCF)c2)C2=[NH+]CC(F)(F)CN12,O,0,0,6.5,['6.5'],['combined_training_datasets_unique.sdf']
4446,NC1=[NH+]C(c2cccc(-c3cncnc3)c2)(c2ccnc(C(F)(F)F)c2)c2cccc(F)c21,O,0,0,6.9,['6.9'],['combined_training_datasets_unique.sdf']
4447,NC1=[NH+]C(c2cccc(-c3cncnc3)c2)(c2ccnc(C(F)F)c2)c2cccc(F)c21,O,0,0,6.8,['6.8'],['combined_training_datasets_unique.sdf']
4448,NC1=[NH+]C(c2ccnc(C(F)(F)F)c2)(c2ccc(F)c(-c3cncnc3)c2)c2cccc(F)c21,O,0,0,6.4,['6.4'],['combined_training_datasets_unique.sdf']
4449,NC1=[NH+]C2(CCc3ccc(NC(=O)c4ccc(Cl)cn4)cc32)CO1,O,0,0,8.3,['8.3'],['combined_training_datasets_unique.sdf']
4450,NC1=[NH+]C2(CCc3ccc(NC(=O)c4ccc(Cl)cn4)cc32)CS1,O,0,0,8.3,['8.3'],['combined_training_datasets_unique.sdf']
4451,NC1=[NH+]C23CCC(NC(=O)c4cccc(Cl)c4)CC2(COC3)CS1,O,0,0,8.2,['8.2'],['combined_training_datasets_unique.sdf']
4452,NC1=[NH+]C2CCC(NC(=O)c3cccc(Cl)c3)CC2CS1,O,0,0,9.7,['9.7'],['combined_training_datasets_unique.sdf']
4453,NC1=[NH+][C@@](c2cccc(-c3cncnc3)c2)(c2ccnc(C(F)F)c2)c2cc(F)cc(F)c21,O,0,0,6.2,['6.2'],['combined_training_datasets_unique.sdf']
4454,NC1=[NH+][C@@](c2cccc(-c3cncnc3)c2)(c2ccnc(C(F)F)c2)c2cccc(F)c21,O,0,0,7.1,['7.1'],['combined_training_datasets_unique.sdf']
4455,NC1=[NH+][C@@]2(c3cccc(NC(=O)c4ccc(Cl)cn4)c3)C[C@H]2CCS1,O,0,0,8.9,['8.9'],['combined_training_datasets_unique.sdf']
4456,NC1=[NH+][C@](c2ccc(OC(F)F)cc2)(c2cccc(OCCF)c2)C2=[NH+]CC(F)(F)CN12,O,0,0,6.5,['6.5'],['combined_training_datasets_unique.sdf']
4457,NC1=[NH+][C@]23CC[C@H](NC(=O)c4cccc(Cl)c4)C[C@@H]2[C@@H](COC3)S1,O,0,0,9.0,['9.0'],['combined_training_datasets_unique.sdf']
4458,NC1=[NH+]c2c(F)cc(Cl)cc2[C@H]2CCC[C@@H]12,O,0,0,8.2,['8.2'],['combined_training_datasets_unique.sdf']
4459,NC1=[NH+]c2c(F)cccc2[C@H]2CCC[C@@H]12,O,0,0,8.5,['8.5'],['combined_training_datasets_unique.sdf']
4460,NC1=[NH+]c2c(F)cccc2[C@H]2CCC[C@@]12F,O,0,0,6.6,['6.6'],['combined_training_datasets_unique.sdf']
4461,NC1=[NH+]c2c(ccc(F)c2F)[C@H]2CCC[C@@H]12,O,0,0,8.0,['8.0'],['combined_training_datasets_unique.sdf']
4462,NC1=[NH+]c2ccc(Cl)cc2[C@H]2CCC[C@@H]12,O,0,0,9.4,['9.4'],['combined_training_datasets_unique.sdf']
4463,NC1=[NH+]c2ccc(Cl)cc2[C@H]2CCC[C@@]12F,O,0,0,7.6,['7.6'],['combined_training_datasets_unique.sdf']
4464,NC1=[NH+]c2ccccc2C1,O,0,0,8.15,['8.15'],['combined_training_datasets_unique.sdf']
4465,NC1=[NH+]c2ccccc2[C@H]2CCC[C@@H]12,O,0,0,9.7,['9.7'],['combined_training_datasets_unique.sdf']
4466,NC1=[NH+]c2ccccc2[C@H]2CCC[C@@]12F,O,0,0,7.9,['7.9'],['combined_training_datasets_unique.sdf']
4467,NC1NC=C[NH2+]1,O,0,0,8.46,['8.46'],['combined_training_datasets_unique.sdf']
4468,NCC(F)(F)F,O,0,0,5.7,['5.7'],['combined_training_datasets_unique.sdf']
4469,NCC(F)F,O,0,0,7.195,['7.195'],['combined_training_datasets_unique.sdf']
4470,NCCC(F)(F)F,O,0,0,8.7,['8.7'],['combined_training_datasets_unique.sdf']
4471,NCC[n+]1cc(Br)c2ccccc2c1,O,0,0,6.71,['6.71'],['combined_training_datasets_unique.sdf']
4472,NCC[n+]1ccc2ccccc2c1,O,0,0,6.85,['6.85'],['combined_training_datasets_unique.sdf']
4473,NNC(=O)C(F)(F)C1(F)OC(F)(F)C(F)(F)C1(F)F,O,0,0,8.26,['8.26'],['combined_training_datasets_unique.sdf']
4474,NNC(=O)C[NH3+],O,0,0,7.69,['7.69'],['combined_training_datasets_unique.sdf']
4475,NNC(=O)[C@@H]([NH3+])Cc1ccccc1,O,0,0,7.06,['7.06'],['combined_training_datasets_unique.sdf']
4476,NNC(=O)c1ccccc1,O,0,0,3.02,['3.02'],['combined_training_datasets_unique.sdf']
4477,NNC(=O)c1ccccn1,O,0,0,2.86,['2.86'],['combined_training_datasets_unique.sdf']
4478,NNC(=O)c1cccnc1,O,0,0,3.27,['3.27'],['combined_training_datasets_unique.sdf']
4479,NNC=O,O,0,0,2.81,['2.81'],['combined_training_datasets_unique.sdf']
4480,NNCCCc1ccccc1,O,0,0,7.2,['7.2'],['combined_training_datasets_unique.sdf']
4481,NNCCO,O,0,0,7.12,['7.12'],['combined_training_datasets_unique.sdf']
4482,NNCCOc1ccccc1,O,0,0,6.8,['6.8'],['combined_training_datasets_unique.sdf']
4483,NNCCc1ccccc1,O,0,0,7.25,['7.25'],['combined_training_datasets_unique.sdf']
4484,NNc1nncc2ccccc12,O,0,0,5.816667,['5.816667'],['combined_training_datasets_unique.sdf']
4485,NOCc1ccc(Cl)cc1,O,0,0,4.22,['4.22'],['combined_training_datasets_unique.sdf']
4486,NOCc1ccccc1,O,0,0,4.34,['4.34'],['combined_training_datasets_unique.sdf']
4487,NP(=O)([O-])N(CCCl)CCCl,O,0,0,4.766667,['4.766667'],['combined_training_datasets_unique.sdf']
4488,NS(=O)(=O)C(F)(F)Br,O,0,0,6.53,['6.53'],['combined_training_datasets_unique.sdf']
4489,NS(=O)(=O)C(F)(F)Cl,O,0,0,6.5,['6.5'],['combined_training_datasets_unique.sdf']
4490,NS(=O)(=O)C(F)(F)F,O,0,0,8.015,['8.015'],['combined_training_datasets_unique.sdf']
4491,NS(=O)(=O)C(F)(F)I,O,0,0,6.79,['6.79'],['combined_training_datasets_unique.sdf']
4492,NS(=O)(=O)C1=NN2CCS(=O)(=O)N=C2S1,O,0,0,6.7,['6.7'],['combined_training_datasets_unique.sdf']
4493,NS(=O)(=O)CCc1ccccc1,O,0,0,10.04,['10.04'],['combined_training_datasets_unique.sdf']
4494,NS(=O)(=O)Oc1ccc(C(=O)OC2CCCC2)cc1,O,0,0,8.73,['8.73'],['combined_training_datasets_unique.sdf']
4495,NS(=O)(=O)Oc1ccc(C(=O)OC2CCCCC2)cc1,O,0,0,8.81,['8.81'],['combined_training_datasets_unique.sdf']
4496,NS(=O)(=O)Oc1ccc(C(=O)OC2CCCCCC2)cc1,O,0,0,8.88,['8.88'],['combined_training_datasets_unique.sdf']
4497,NS(=O)(=O)Oc1ccc(C(=O)OC2CCCCCCC2)cc1,O,0,0,8.09,['8.09'],['combined_training_datasets_unique.sdf']
4498,NS(=O)(=O)Oc1ccc2c3c(c(=O)oc2c1)CCCCC3,O,0,0,8.27,['8.27'],['combined_training_datasets_unique.sdf']
4499,NS(=O)(=O)c1cc2c(cc1Cl)NC=NS2(=O)=O,O,0,0,7.633333,['7.633333'],['combined_training_datasets_unique.sdf']
4500,NS(=O)(=O)c1cc2c(s1)C(=O)CCS2,O,0,0,8.45,['8.45'],['combined_training_datasets_unique.sdf']
4501,NS(=O)(=O)c1cc2c(s1)C(=O)CCS2(=O)=O,O,0,0,7.32,['7.32'],['combined_training_datasets_unique.sdf']
4502,NS(=O)(=O)c1cc2c(s1)C(O)CCS2,O,0,0,9.0,['9.0'],['combined_training_datasets_unique.sdf']
4503,NS(=O)(=O)c1cc2c(s1)C(O)CCS2(=O)=O,O,0,0,8.34,['8.34'],['combined_training_datasets_unique.sdf']
4504,NS(=O)(=O)c1cc2c(s1)C(O)CCS2=O,O,0,0,8.82,['8.82'],['combined_training_datasets_unique.sdf']
4505,NS(=O)(=O)c1cc2c(s1)CC(O)CS2(=O)=O,O,0,0,8.52,['8.52'],['combined_training_datasets_unique.sdf']
4506,NS(=O)(=O)c1cc2c(s1)S(=O)(=O)CC(O)C2,O,0,0,8.6,['8.6'],['combined_training_datasets_unique.sdf']
4507,NS(=O)(=O)c1cc2c(s1)S(=O)(=O)CCC2,O,0,0,8.35,['8.35'],['combined_training_datasets_unique.sdf']
4508,NS(=O)(=O)c1cc2c(s1)S(=O)(=O)CCC2=O,O,0,0,7.92,['7.92'],['combined_training_datasets_unique.sdf']
4509,NS(=O)(=O)c1cc2c(s1)S(=O)(=O)CCC2O,O,0,0,8.275,['8.275'],['combined_training_datasets_unique.sdf']
4510,NS(=O)(=O)c1cc2c(s1)S(=O)(=O)CC[C@@H]2O,O,0,0,8.3,['8.3'],['combined_training_datasets_unique.sdf']
4511,NS(=O)(=O)c1cc2c(s1)S(=O)(=O)CC[C@H]2O,O,0,0,8.35,['8.35'],['combined_training_datasets_unique.sdf']
4512,NS(=O)(=O)c1cc2c(s1)S(=O)CCC2O,O,0,0,8.68,['8.68'],['combined_training_datasets_unique.sdf']
4513,NS(=O)(=O)c1cc2c(s1)SC(CCO)CN2,O,0,0,9.62,['9.62'],['combined_training_datasets_unique.sdf']
4514,NS(=O)(=O)c1cc2c(s1)SCCC2=O,O,0,0,8.6,['8.6'],['combined_training_datasets_unique.sdf']
4515,NS(=O)(=O)c1cc2c(s1)SCCC2O,O,0,0,9.4,['9.4'],['combined_training_datasets_unique.sdf']
4516,NS(=O)(=O)c1ccc(C(F)(F)F)cc1,O,0,0,9.4,['9.4'],['combined_training_datasets_unique.sdf']
4517,NS(=O)(=O)c1ccc(CCCCCO)cc1,O,0,0,10.28,['10.28'],['combined_training_datasets_unique.sdf']
4518,NS(=O)(=O)c1ccc(CCCCO)cc1,O,0,0,10.32,['10.32'],['combined_training_datasets_unique.sdf']
4519,NS(=O)(=O)c1ccc(CCCO)cc1,O,0,0,10.23,['10.23'],['combined_training_datasets_unique.sdf']
4520,NS(=O)(=O)c1ccc(Cl)c(Cl)c1,O,0,0,8.94,['8.94'],['combined_training_datasets_unique.sdf']
4521,NS(=O)(=O)c1ccc(Cl)cc1,O,0,0,9.725,['9.725'],['combined_training_datasets_unique.sdf']
4522,NS(=O)(=O)c1ccc(F)cc1,O,0,0,9.34,['9.34'],['combined_training_datasets_unique.sdf']
4523,NS(=O)(=O)c1ccc(S(=O)(=O)CC(O)CO)cc1,O,0,0,9.35,['9.35'],['combined_training_datasets_unique.sdf']
4524,NS(=O)(=O)c1ccc(S(=O)(=O)CCCCO)c(F)c1,O,0,0,9.18,['9.18'],['combined_training_datasets_unique.sdf']
4525,NS(=O)(=O)c1ccc(S(=O)(=O)CCCCO)cc1,O,0,0,9.6,['9.6'],['combined_training_datasets_unique.sdf']
4526,NS(=O)(=O)c1ccc(S(=O)(=O)CCCCO)s1,O,0,0,8.67,['8.67'],['combined_training_datasets_unique.sdf']
4527,NS(=O)(=O)c1ccc(S(=O)(=O)CCCO)c(F)c1,O,0,0,9.02,['9.02'],['combined_training_datasets_unique.sdf']
4528,NS(=O)(=O)c1ccc(S(=O)(=O)CCCO)cc1,O,0,0,8.98,['8.98'],['combined_training_datasets_unique.sdf']
4529,NS(=O)(=O)c1ccc(S(=O)(=O)CCCO)s1,O,0,0,8.32,['8.32'],['combined_training_datasets_unique.sdf']
4530,NS(=O)(=O)c1ccc(S(=O)(=O)CCO)c(F)c1,O,0,0,9.0,['9.0'],['combined_training_datasets_unique.sdf']
4531,NS(=O)(=O)c1ccc(S(=O)(=O)CCO)cc1,O,0,0,9.38,['9.38'],['combined_training_datasets_unique.sdf']
4532,NS(=O)(=O)c1ccc(S(=O)(=O)CCO)s1,O,0,0,8.65,['8.65'],['combined_training_datasets_unique.sdf']
4533,NS(=O)(=O)c1ccc(SCCCCCO)cc1,O,0,0,9.25,['9.25'],['combined_training_datasets_unique.sdf']
4534,NS(=O)(=O)c1ccc(SCCCCO)c(F)c1,O,0,0,9.82,['9.82'],['combined_training_datasets_unique.sdf']
4535,NS(=O)(=O)c1ccc(SCCCCO)cc1,O,0,0,10.17,['10.17'],['combined_training_datasets_unique.sdf']
4536,NS(=O)(=O)c1ccc(SCCCCO)s1,O,0,0,9.5,['9.5'],['combined_training_datasets_unique.sdf']
4537,NS(=O)(=O)c1ccc(SCCCO)c(Cl)c1,O,0,0,9.45,['9.45'],['combined_training_datasets_unique.sdf']
4538,NS(=O)(=O)c1ccc(SCCCO)c(F)c1,O,0,0,9.64,['9.64'],['combined_training_datasets_unique.sdf']
4539,NS(=O)(=O)c1ccc(SCCCO)cc1,O,0,0,10.23,['10.23'],['combined_training_datasets_unique.sdf']
4540,NS(=O)(=O)c1ccc(SCCCO)s1,O,0,0,9.32,['9.32'],['combined_training_datasets_unique.sdf']
4541,NS(=O)(=O)c1ccc(SCCO)c(F)c1,O,0,0,9.76,['9.76'],['combined_training_datasets_unique.sdf']
4542,NS(=O)(=O)c1ccc(SCCO)cc1,O,0,0,9.27,['9.27'],['combined_training_datasets_unique.sdf']
4543,NS(=O)(=O)c1ccc(SCCO)s1,O,0,0,9.46,['9.46'],['combined_training_datasets_unique.sdf']
4544,NS(=O)(=O)c1cccc(C(F)(F)F)c1,O,0,0,8.98,['8.98'],['combined_training_datasets_unique.sdf']
4545,NS(=O)(=O)c1cccc(Cl)c1,O,0,0,9.04,['9.04'],['combined_training_datasets_unique.sdf']
4546,NS(=O)(=O)c1ccccc1,O,0,0,9.7,['9.7'],['combined_training_datasets_unique.sdf']
4547,NS(=O)(=O)c1nc2ccccc2s1,O,0,0,7.8,['7.8'],['combined_training_datasets_unique.sdf']
4548,NS(=O)(=O)c1nccs1,O,0,0,8.25,['8.25'],['combined_training_datasets_unique.sdf']
4549,NS(=O)(=O)c1nn2c(=O)n(CCCl)c(=O)nc2s1,O,0,0,7.1,['7.1'],['combined_training_datasets_unique.sdf']
4550,NS(=O)(=O)c1nn2cc(-c3ccccc3)[nH+]c2s1,O,0,0,7.12,['7.12'],['combined_training_datasets_unique.sdf']
4551,NS(=O)(=O)c1nnc(Nc2ccccc2)s1,O,0,0,9.405,['9.405'],['combined_training_datasets_unique.sdf']
4552,Nc1[nH+]cc2n1CC(Cc1cccc3c1OCO3)CC2,O,0,0,9.2,['9.2'],['combined_training_datasets_unique.sdf']
4553,Nc1[nH]c(=O)[n+]([C@@H]2C[C@@H](O)[C@H](CO)O2)cc1CO,O,0,0,3.55,['3.55'],['combined_training_datasets_unique.sdf']
4554,Nc1[nH]c(=S)[nH]c(=O)c1C1=CCCCC1,O,0,0,7.11,['7.11'],['combined_training_datasets_unique.sdf']
4555,Nc1[nH]cnc(=S)c1N,O,0,0,2.21,['2.21'],['combined_training_datasets_unique.sdf']
4556,Nc1c(CC(=O)[O-])cccc1C(=O)c1ccc(Br)cc1,O,0,0,4.3,['4.3'],['combined_training_datasets_unique.sdf']
4557,Nc1c2c([nH+]c3ccccc13)CCCC2,O,0,0,9.91,['9.91'],['combined_training_datasets_unique.sdf']