,Solute SMILES,Solvent SMILES,Solute CAS,Solute IUPAC,pKa (avg),pKa (all),Source
3150,C[NH+]1CC[C@H]2CCC[C@@H](NC(=O)c3ccc(Cl)cc3)[C@@H]2C1,O,0,0,8.83,['8.83'],['combined_training_datasets_unique.sdf']
3151,C[NH+]1CC[C@H]2CCC[C@@H](NC(=O)c3ccccc3)[C@@H]2C1,O,0,0,8.99,['8.99'],['combined_training_datasets_unique.sdf']
3152,C[NH+]1CC[C@H]2CCC[C@@H](NC(=O)c3ccccc3)[C@H]2C1,O,0,0,9.18,['9.18'],['combined_training_datasets_unique.sdf']
3153,C[NH+]1CC[C@H]2CCC[C@@H](OC(=O)c3ccc(Cl)cc3)[C@@H]2C1,O,0,0,8.75,['8.75'],['combined_training_datasets_unique.sdf']
3154,C[NH+]1CC[C@H]2CCC[C@@H](OC(=O)c3ccc(Cl)cc3)[C@H]2C1,O,0,0,8.9,['8.9'],['combined_training_datasets_unique.sdf']
3155,C[NH+]1CC[C@H]2CCC[C@@H](OC(=O)c3ccccc3)[C@H]2C1,O,0,0,9.05,['9.05'],['combined_training_datasets_unique.sdf']
3156,C[NH+]1CC[C@]23c4c5ccc(OCc6ccccc6)c4O[C@H]2[C@@H](O)C=C[C@H]3[C@H]1C5,O,0,0,8.07,['8.07'],['combined_training_datasets_unique.sdf']
3157,C[NH+]1C[C@@H](CO)C[C@H]2c3cccc4[nH]cc(c34)C[C@@H]21,O,0,0,8.3,['8.3'],['combined_training_datasets_unique.sdf']
3158,C[NH+]1C[C@H](CO)C[C@H]2c3cccc4[nH]cc(c34)C[C@@H]21,O,0,0,8.84,['8.84'],['combined_training_datasets_unique.sdf']
3159,C[NH+]1[C@H](C[C@@H](O)c2ccccc2)CCC[C@@H]1CC(=O)c1ccccc1,O,0,0,8.0,['8.0'],['combined_training_datasets_unique.sdf']
3160,C[NH+]1[C@H]2CC[C@@H]1C[C@@H](O)C2,O,0,0,10.33,['10.33'],['combined_training_datasets_unique.sdf']
3161,C[NH+]1[C@H]2CC[C@@H]1C[C@@H](OC(=O)[C@H](CO)c1ccccc1)C2,O,0,0,9.66,['9.66'],['combined_training_datasets_unique.sdf']
3162,C[NH+]1[C@H]2CC[C@@H]1C[C@H](O)C2,O,0,0,9.86,['9.86'],['combined_training_datasets_unique.sdf']
3163,C[NH+]1[C@H]2CC[C@@H]1C[C@H](OC(=O)C(CO)c1ccccc1)C2,O,0,0,9.76125,['9.76125'],['combined_training_datasets_unique.sdf']
3164,C[NH+]1[C@H]2CC[C@@H]1C[C@H](OC(=O)c1c[nH]c3ccccc13)C2,O,0,0,8.4,['8.4'],['combined_training_datasets_unique.sdf']
3165,C[NH+]1[C@H]2CC[C@@H]1C[C@H](OC(c1ccccc1)c1ccccc1)C2,O,0,0,10.0,['10.0'],['combined_training_datasets_unique.sdf']
3166,C[NH+]1[C@H]2C[C@@H](OC(=O)[C@H](CO)c3ccccc3)C[C@@H]1[C@@H]1O[C@@H]12,O,0,0,7.55,['7.55'],['combined_training_datasets_unique.sdf']
3167,C[NH+]1[C@H]2C[C@H](OC(=O)[C@H](CO)c3ccccc3)C[C@@H]1[C@@H]1O[C@H]12,O,0,0,7.633333,['7.633333'],['combined_training_datasets_unique.sdf']
3168,C[NH+]1[C@H]2C[C@H]3C[C@@H]1[C@H](O3)[C@@H]2O,O,0,0,8.2,['8.2'],['combined_training_datasets_unique.sdf']
3169,C[NH+]=C(N)[NH+]=C(N)Nc1ccc(Cl)cc1,O,0,0,10.6,['10.6'],['combined_training_datasets_unique.sdf']
3170,C[NH+]=C1Nc2ccccc2C(C)N1,O,0,0,10.6,['10.6'],['combined_training_datasets_unique.sdf']
3171,C[NH2+]C,O,0,0,10.88,['10.88'],['combined_training_datasets_unique.sdf']
3172,C[NH2+]C(C)C(O)c1ccccc1,O,0,0,9.96,['9.96'],['combined_training_datasets_unique.sdf']
3173,C[NH2+]C(C)CC1CCCCC1,O,0,0,10.52,['10.52'],['combined_training_datasets_unique.sdf']
3174,C[NH2+]C(C)Cc1ccc(OC)c(OC)c1,O,0,0,9.8,['9.8'],['combined_training_datasets_unique.sdf']
3175,C[NH2+]C(C)Cc1ccccc1,O,0,0,9.87,['9.87'],['combined_training_datasets_unique.sdf']
3176,C[NH2+]C(CO)CO,O,0,0,9.12,['9.12'],['combined_training_datasets_unique.sdf']
3177,C[NH2+]C1(c2ccccc2Cl)CCCCC1=O,O,0,0,7.495,['7.495'],['combined_training_datasets_unique.sdf']
3178,C[NH2+]CC(=O)N(C)C,O,0,0,8.86,['8.86'],['combined_training_datasets_unique.sdf']
3179,C[NH2+]CC(=O)Nc1c(C)cccc1C,O,0,0,7.99,['7.99'],['combined_training_datasets_unique.sdf']
3180,C[NH2+]CC(C)c1ccccc1,O,0,0,9.87,['9.87'],['combined_training_datasets_unique.sdf']
3181,C[NH2+]CC(N)=O,O,0,0,8.35,['8.35'],['combined_training_datasets_unique.sdf']
3182,C[NH2+]CC(O)CO,O,0,0,9.55,['9.55'],['combined_training_datasets_unique.sdf']
3183,C[NH2+]CC(O)c1ccccc1,O,0,0,9.31,['9.31'],['combined_training_datasets_unique.sdf']
3184,C[NH2+]CC1CC2c3ccccc3C1c1ccccc12,O,0,0,10.18,['10.18'],['combined_training_datasets_unique.sdf']
3185,C[NH2+]CCC(=O)c1ccccc1,O,0,0,9.0,['9.0'],['combined_training_datasets_unique.sdf']
3186,C[NH2+]CCC(Oc1ccc(C(F)(F)F)cc1)c1ccccc1,O,0,0,10.04,['10.04'],['combined_training_datasets_unique.sdf']
3187,C[NH2+]CCC=C1c2ccccc2CCc2ccccc21,O,0,0,10.144,['10.144'],['combined_training_datasets_unique.sdf']
3188,C[NH2+]CCCC12CCC(c3ccccc31)c1ccccc12,O,0,0,10.533333,['10.533333'],['combined_training_datasets_unique.sdf']
3189,C[NH2+]CCCC1c2ccccc2C=Cc2ccccc21,O,0,0,8.2,['8.2'],['combined_training_datasets_unique.sdf']
3190,C[NH2+]CCCCc1ccccc1,O,0,0,10.76,['10.76'],['combined_training_datasets_unique.sdf']
3191,C[NH2+]CCCN1c2ccccc2CCc2ccccc21,O,0,0,10.245,['10.245'],['combined_training_datasets_unique.sdf']
3192,C[NH2+]CCCNC(=O)CN=O,O,0,0,9.62,['9.62'],['combined_training_datasets_unique.sdf']
3193,C[NH2+]CCC[C@]12CC[C@H](c3ccccc31)c1ccccc12,O,0,0,10.5,['10.5'],['combined_training_datasets_unique.sdf']
3194,C[NH2+]CCCc1ccccc1,O,0,0,10.58,['10.58'],['combined_training_datasets_unique.sdf']
3195,C[NH2+]CCN(C)C(=O)Oc1ccc(OC)cc1,O,0,0,8.88,['8.88'],['combined_training_datasets_unique.sdf']
3196,C[NH2+]CCO,O,0,0,9.91,['9.91'],['combined_training_datasets_unique.sdf']
3197,C[NH2+]CC[C@@H](Oc1ccccc1C)c1ccccc1,O,0,0,10.1575,['10.1575'],['combined_training_datasets_unique.sdf']
3198,C[NH2+]CC[C@H](Oc1cccc2ccccc12)c1cccs1,O,0,0,9.97,['9.97'],['combined_training_datasets_unique.sdf']
3199,C[NH2+]CCc1ccccc1,O,0,0,10.23,['10.23'],['combined_training_datasets_unique.sdf']
3200,C[NH2+]CCc1nc(-c2cn(C)c3ccccc23)no1,O,0,0,8.8,['8.8'],['combined_training_datasets_unique.sdf']
3201,C[NH2+]Cc1cc(-c2ccc(F)cc2)n(S(=O)(=O)c2ccc(C)cc2)c1,O,0,0,9.4,['9.4'],['combined_training_datasets_unique.sdf']
3202,C[NH2+]Cc1cc(-c2cccc(F)c2)n(S(=O)(=O)c2ccc(C)cc2)c1,O,0,0,9.31,['9.31'],['combined_training_datasets_unique.sdf']
3203,C[NH2+]Cc1cc(-c2ccccc2)n(S(=O)(=O)c2ccc(C)cc2)c1,O,0,0,9.49,['9.49'],['combined_training_datasets_unique.sdf']
3204,C[NH2+]Cc1cc(-c2ccccc2)n(S(=O)(=O)c2ccc(OC)cc2)c1,O,0,0,9.48,['9.48'],['combined_training_datasets_unique.sdf']
3205,C[NH2+]Cc1cc(-c2ccccc2F)n(S(=O)(=O)c2ccc(C)cc2)c1,O,0,0,9.48,['9.48'],['combined_training_datasets_unique.sdf']
3206,C[NH2+]Cc1cc(-c2ccccc2F)n(S(=O)(=O)c2cccnc2)c1,O,0,0,9.3,['9.3'],['combined_training_datasets_unique.sdf']
3207,C[NH2+]Cc1cc(=O)oc2cc(OCc3cccc(Cl)c3)ccc12,O,0,0,7.18,['7.18'],['combined_training_datasets_unique.sdf']
3208,C[NH2+]Cc1ccc(C)cc1,O,0,0,9.93,['9.93'],['combined_training_datasets_unique.sdf']
3209,C[NH2+]Cc1ccccc1,O,0,0,9.64,['9.64'],['combined_training_datasets_unique.sdf']
3210,C[NH2+]Cc1cn(S(=O)(=O)c2cc(C)ccn2)c(-c2cccnc2F)c1F,O,0,0,8.73,['8.73'],['combined_training_datasets_unique.sdf']
3211,C[NH2+]Cc1cn(S(=O)(=O)c2cccnc2)c(-c2cccnc2F)c1F,O,0,0,8.54,['8.54'],['combined_training_datasets_unique.sdf']
3212,C[NH2+]Cc1nc(-c2cn(C)c3ccccc23)no1,O,0,0,6.5,['6.5'],['combined_training_datasets_unique.sdf']
3213,C[NH2+][C@@H](C)[C@@H](O)c1ccccc1,O,0,0,10.055,['10.055'],['combined_training_datasets_unique.sdf']
3214,C[NH2+][C@@H](C)[C@H](O)c1ccccc1,O,0,0,9.555,['9.555'],['combined_training_datasets_unique.sdf']
3215,C[NH2+][C@H](C)[C@H](O)c1ccccc1,O,0,0,9.61,['9.61'],['combined_training_datasets_unique.sdf']
3216,C[NH2+][C@H]1CCCC[C@@H]1O,O,0,0,10.16,['10.16'],['combined_training_datasets_unique.sdf']
3217,C[NH2+][C@H]1CC[C@@H](c2ccc(Cl)c(Cl)c2)c2ccc(C(N)=O)cc21,O,0,0,8.5,['8.5'],['combined_training_datasets_unique.sdf']
3218,C[NH2+][C@H]1CC[C@@H](c2ccc(Cl)c(Cl)c2)c2ccccc21,O,0,0,9.23,['9.23'],['combined_training_datasets_unique.sdf']
3219,C[NH2+][C@]1(C)[C@@H]2CC[C@@H](C2)C1(C)C,O,0,0,11.085,['11.085'],['combined_training_datasets_unique.sdf']
3220,C[NH3+],O,0,0,10.695,['10.695'],['combined_training_datasets_unique.sdf']
3221,C[S+](C)c1ccc([O-])cc1,O,0,0,7.31,['7.31'],['combined_training_datasets_unique.sdf']
3222,C[S+](C)c1cccc(O)c1,O,0,0,7.67,['7.67'],['combined_training_datasets_unique.sdf']
3223,C[n+]1c(N)cc[nH]c1=O,O,0,0,7.38,['7.38'],['combined_training_datasets_unique.sdf']
3224,C[n+]1c(NN)ccc2ccccc21,O,0,0,2.66,['2.66'],['combined_training_datasets_unique.sdf']
3225,C[n+]1c2ccccc2c(Nc2ccc(NS(C)(=O)=O)cc2)c2ccc(N)cc21,O,0,0,10.07,['10.07'],['combined_training_datasets_unique.sdf']
3226,C[n+]1c2ccccc2c(Nc2ccccc2)c2[nH]c3ccccc3c21,O,0,0,10.6,['10.6'],['combined_training_datasets_unique.sdf']
3227,C[n+]1c2ccccc2nc2c(O)cccc21,O,0,0,4.85,['4.85'],['combined_training_datasets_unique.sdf']
3228,C[n+]1c2ccccc2nc2ccc(O)cc21,O,0,0,3.0,['3.0'],['combined_training_datasets_unique.sdf']
3229,C[n+]1cc(O)c2ccccc2c1,O,0,0,4.93,['4.93'],['combined_training_datasets_unique.sdf']
3230,C[n+]1cc(O)cc2ccccc21,O,0,0,5.42,['5.42'],['combined_training_datasets_unique.sdf']
3231,C[n+]1cc([S-])cc2ccccc21,O,0,0,2.4,['2.4'],['combined_training_datasets_unique.sdf']
3232,C[n+]1ccc(N)[nH]c1=O,O,0,0,4.52,['4.52'],['combined_training_datasets_unique.sdf']
3233,C[n+]1ccc(NN)c2ccccc21,O,0,0,2.61,['2.61'],['combined_training_datasets_unique.sdf']
3234,C[n+]1ccc2c(O)cccc2c1,O,0,0,6.9,['6.9'],['combined_training_datasets_unique.sdf']
3235,C[n+]1ccc2cc(O)ccc2c1,O,0,0,6.06,['6.06'],['combined_training_datasets_unique.sdf']
3236,C[n+]1ccc2ccc(O)cc2c1,O,0,0,7.09,['7.09'],['combined_training_datasets_unique.sdf']
3237,C[n+]1ccc2cccc(O)c2c1,O,0,0,5.81,['5.81'],['combined_training_datasets_unique.sdf']
3238,C[n+]1cccc(C(=O)[O-])c1,O,0,0,2.29,['2.29'],['combined_training_datasets_unique.sdf']
3239,C[n+]1cccc(CC(=O)c2ccccc2)c1,O,0,0,10.98,['10.98'],['combined_training_datasets_unique.sdf']
3240,C[n+]1cccc(O)c1,O,0,0,4.96,['4.96'],['combined_training_datasets_unique.sdf']
3241,C[n+]1cccc([S-])c1,O,0,0,2.27,['2.27'],['combined_training_datasets_unique.sdf']
3242,C[n+]1cccc2c(O)cccc21,O,0,0,6.12,['6.12'],['combined_training_datasets_unique.sdf']
3243,C[n+]1cccc2c([S-])cccc21,O,0,0,3.22,['3.22'],['combined_training_datasets_unique.sdf']
3244,C[n+]1cccc2cc([O-])ccc21,O,0,0,7.15,['7.15'],['combined_training_datasets_unique.sdf']
3245,C[n+]1cccc2cc([S-])ccc21,O,0,0,4.12,['4.12'],['combined_training_datasets_unique.sdf']
3246,C[n+]1cccc2ccc(O)cc21,O,0,0,5.56,['5.56'],['combined_training_datasets_unique.sdf']
3247,C[n+]1cccc2cccc([O-])c21,O,0,0,6.81,['6.81'],['combined_training_datasets_unique.sdf']
3248,C[n+]1ccccc1/C=C/c1ccc(O)cc1,O,0,0,8.4,['8.4'],['combined_training_datasets_unique.sdf']
3249,C[n+]1nc(-c2ccccc2)ccc1NCC[NH+]1CCOCC1,O,0,0,5.31,['5.31'],['combined_training_datasets_unique.sdf']
3250,Cc1[nH+]cc(C2CCN(C(=O)CCS(=O)(=O)c3ccc4cc(Cl)ccc4c3)CC2)n1C,O,0,0,8.2,['8.2'],['combined_training_datasets_unique.sdf']
3251,Cc1[nH+]cc2n1C(=O)N(C1CCN(C(=O)CCS(=O)(=O)c3ccc4cc(Cl)ccc4c3)CC1)C2,O,0,0,5.0,['5.0'],['combined_training_datasets_unique.sdf']
3252,Cc1[nH+]cc2n1C(=O)N(N1CCN(C(=O)CCS(=O)(=O)c3ccc4cc(Cl)ccc4c3)CC1)C2,O,0,0,5.0,['5.0'],['combined_training_datasets_unique.sdf']
3253,Cc1[nH][nH]c(=O)c1-c1ccccc1,O,0,0,11.4,['11.4'],['combined_training_datasets_unique.sdf']
3254,Cc1[nH]c(C(=O)NC2CCN(c3ncc(C(=O)[O-])s3)CC2)c(Cl)c1Cl,O,0,0,3.4,['3.4'],['combined_training_datasets_unique.sdf']
3255,Cc1[nH]c(C2CCN(C(=O)CCS(=O)(=O)c3ccc4cc(Cl)ccc4c3)CC2)c[nH+]1,O,0,0,7.9,['7.9'],['combined_training_datasets_unique.sdf']
3256,Cc1[nH]c(CO)c(-c2ccc(Oc3ccc(OC(F)(F)F)cc3)cc2)c(=O)c1Cl,O,0,0,9.73,['9.73'],['combined_training_datasets_unique.sdf']
3257,Cc1[nH]c2c(NCc3ccccc3)nccc2c1C,O,0,0,8.79,['8.79'],['combined_training_datasets_unique.sdf']
3258,Cc1[nH]c2ccc(OC3CC[NH+](C(C)C)CC3)cc2c1C(=O)N1CCOCC1,O,0,0,9.8,['9.8'],['combined_training_datasets_unique.sdf']
3259,Cc1[nH]c2ccccc2c1C(=O)[O-],O,0,0,5.89,['5.89'],['combined_training_datasets_unique.sdf']
3260,Cc1[nH]c2ccccc2c1C1CCC[NH+](Cc2ccc(CCC(=O)N=O)cc2)C1,O,0,0,7.8,['7.8'],['combined_training_datasets_unique.sdf']
3261,Cc1[nH]c2ccccc2c1CC(=O)[O-],O,0,0,4.67,['4.67'],['combined_training_datasets_unique.sdf']
3262,Cc1[nH]c2ccccc2c1CCN(Cc1ccc(CCC(=O)N=O)cc1)CC(F)F,O,0,0,4.65,['4.65'],['combined_training_datasets_unique.sdf']
3263,Cc1[nH]c2ccccc2c1CC[NH+](CCC(F)F)Cc1ccc(CCC(=O)N=O)cc1,O,0,0,5.8,['5.8'],['combined_training_datasets_unique.sdf']
3264,Cc1[nH]ccc1C(=O)[O-],O,0,0,5.8,['5.8'],['combined_training_datasets_unique.sdf']
3265,Cc1[nH]ccc2c1[nH]c1cc(=O)ccc12,O,0,0,8.43,['8.43'],['combined_training_datasets_unique.sdf']
3266,Cc1[nH]n(-c2ccccc2)c(=O)c1C,O,0,0,11.3,['11.3'],['combined_training_datasets_unique.sdf']
3267,Cc1[nH]n(-c2ccccc2)c(=S)c1C(=O)c1ccccc1,O,0,0,2.9,['2.9'],['combined_training_datasets_unique.sdf']
3268,Cc1[nH]n(C)c(=O)c1Cc1ccccc1,O,0,0,10.9,['10.9'],['combined_training_datasets_unique.sdf']
3269,Cc1[nH]nc2c(N)cccc12,O,0,0,3.18,['3.18'],['combined_training_datasets_unique.sdf']
3270,Cc1[nH]nc2c1c(=O)n(C)c(=O)n2C,O,0,0,9.83,['9.83'],['combined_training_datasets_unique.sdf']
3271,Cc1[nH]nc2cc(N)ccc12,O,0,0,4.0,['4.0'],['combined_training_datasets_unique.sdf']
3272,Cc1[nH]nc2ncnc(N)c12,O,0,0,11.11,['11.11'],['combined_training_datasets_unique.sdf']
3273,Cc1c(-c2ccc(=O)n(Cc3ccccc3)n2)c2cc(Br)ccc2n1CC(=O)[O-],O,0,0,4.03,['4.03'],['combined_training_datasets_unique.sdf']
3274,Cc1c(-c2ccc(=O)n(Cc3ccccc3)n2)c2cc(Cl)cc(Cl)c2n1CC(=O)[O-],O,0,0,3.88,['3.88'],['combined_training_datasets_unique.sdf']
3275,Cc1c(-c2ccc(=O)n(Cc3ccccc3)n2)c2cc(Cl)cc(F)c2n1CC(=O)[O-],O,0,0,3.86,['3.86'],['combined_training_datasets_unique.sdf']
3276,Cc1c(-c2ccc(=O)n(Cc3ccccc3)n2)c2cc(Cl)ccc2n1CC(=O)[O-],O,0,0,4.03,['4.03'],['combined_training_datasets_unique.sdf']
3277,Cc1c(-c2ccc(=O)n(Cc3ccccc3)n2)c2cc(F)cc(Cl)c2n1CC(=O)[O-],O,0,0,3.86,['3.86'],['combined_training_datasets_unique.sdf']
3278,Cc1c(-c2ccc(=O)n(Cc3ccccc3)n2)c2cc(F)cc(F)c2n1CC(=O)[O-],O,0,0,3.85,['3.85'],['combined_training_datasets_unique.sdf']
3279,Cc1c(-c2ccc(=O)n(Cc3ccccc3)n2)c2cc(F)cc(S(C)(=O)=O)c2n1CC(=O)[O-],O,0,0,3.83,['3.83'],['combined_training_datasets_unique.sdf']
3280,Cc1c(-c2ccc(=O)n(Cc3ccccc3)n2)c2cc(F)ccc2n1CC(=O)[O-],O,0,0,4.02,['4.02'],['combined_training_datasets_unique.sdf']
3281,Cc1c(-c2ccc(=O)n(Cc3ccccc3)n2)c2cc(S(C)(=O)=O)cc(F)c2n1CC(=O)[O-],O,0,0,3.83,['3.83'],['combined_training_datasets_unique.sdf']
3282,Cc1c(-c2ccc(=O)n(Cc3ccccc3)n2)c2cc(S(C)(=O)=O)ccc2n1CC(=O)[O-],O,0,0,4.0,['4.0'],['combined_training_datasets_unique.sdf']
3283,Cc1c(-c2ccc(=O)n(Cc3ccccc3)n2)c2cccc(Br)c2n1CC(=O)[O-],O,0,0,3.98,['3.98'],['combined_training_datasets_unique.sdf']
3284,Cc1c(-c2ccc(=O)n(Cc3ccccc3)n2)c2ccccc2n1CC(=O)[O-],O,0,0,4.15,['4.15'],['combined_training_datasets_unique.sdf']
3285,Cc1c(-c2ccccc2)[nH][nH]c1=O,O,0,0,7.6,['7.6'],['combined_training_datasets_unique.sdf']
3286,Cc1c(-c2ccccc2)[nH]n(-c2ccccc2)c1=O,O,0,0,7.8,['7.8'],['combined_training_datasets_unique.sdf']
3287,Cc1c(-c2ccccc2)oc2c(C(=O)OCC[NH+]3CCCCC3)cccc2c1=O,O,0,0,7.3,['7.3'],['combined_training_datasets_unique.sdf']
3288,Cc1c(-c2nnc(-c3ccc(OC(C)C)c(C#N)c3)s2)ccc2c1CC[NH+](C(CO)CO)C2,O,0,0,7.2,['7.2'],['combined_training_datasets_unique.sdf']
3289,Cc1c(-c2noc(-c3ccc(OC(C)C)c(C#N)c3)n2)ccc2c1CC[NH+](C(CO)CO)C2,O,0,0,7.3,['7.3'],['combined_training_datasets_unique.sdf']
3290,Cc1c(-c2noc(-c3ccc(OC(C)C)c(C#N)c3)n2)ccc2c1CC[NH+](C(CO)CO)CC2,O,0,0,8.2,['8.2'],['combined_training_datasets_unique.sdf']
3291,Cc1c(-c2noc(-c3ccc(OC(C)C)c(C#N)c3)n2)ccc2c1CC[NH+](CC(=O)N[C@@H](C)CO)C2,O,0,0,6.07,['6.07'],['combined_training_datasets_unique.sdf']
3292,Cc1c(-c2noc(-c3ccc(OC(C)C)c(C#N)c3)n2)ccc2c1CC[NH+](C[C@@H](O)CO)C2,O,0,0,7.7,['7.7'],['combined_training_datasets_unique.sdf']
3293,Cc1c(-c2noc(-c3ccc(OC(C)C)c(C#N)c3)n2)ccc2c1CC[NH+](C[C@@H](O)CO)CC2,O,0,0,8.4,['8.4'],['combined_training_datasets_unique.sdf']
3294,Cc1c(-c2noc(-c3ccc(OC(C)C)c(C#N)c3)n2)ccc2c1CC[NH+](C[C@H](O)CO)C2,O,0,0,7.7,['7.7'],['combined_training_datasets_unique.sdf']
3295,Cc1c(-c2noc(-c3ccc(OC(C)C)c(C#N)c3)n2)ccc2c1CC[NH+](C[C@H](O)CO)CC2,O,0,0,8.4,['8.4'],['combined_training_datasets_unique.sdf']
3296,Cc1c(-c2noc(-c3ccc(OC(C)C)c(C#N)c3)n2)ccc2c1OCC[NH+](C(CO)CO)C2,O,0,0,6.3,['6.3'],['combined_training_datasets_unique.sdf']
3297,Cc1c(-c2noc(-c3cnc(NC(C)C)c(C#N)c3)n2)ccc2c1CC[NH+](C(CO)CO)CC2,O,0,0,8.3,['8.3'],['combined_training_datasets_unique.sdf']
3298,Cc1c(-c2noc(-c3cnc(OC(C)C)c(C#N)c3)n2)ccc2c1CC[NH+](C(CO)CO)C2,O,0,0,7.3,['7.3'],['combined_training_datasets_unique.sdf']
3299,Cc1c(Br)cc(N)cc1Br,O,0,0,2.87,['2.87'],['combined_training_datasets_unique.sdf']
3300,Cc1c(Br)cccc1C(=O)[O-],O,0,0,3.36,['3.36'],['combined_training_datasets_unique.sdf']
3301,Cc1c(C(=O)[O-])[nH]c2ccccc12,O,0,0,4.33,['4.33'],['combined_training_datasets_unique.sdf']
3302,Cc1c(C(=O)c2cccc3ccccc23)c2cccc3c2n1[C@H](C[NH+]1CCOCC1)CO3,O,0,0,4.14,['4.14'],['combined_training_datasets_unique.sdf']
3303,Cc1c(C)c(O)c(C)c(C)c1O,O,0,0,11.3,['11.3'],['combined_training_datasets_unique.sdf']
3304,Cc1c(CC#N)nc2c(OCc3ccccc3)cccn12,O,0,0,5.5,['5.5'],['combined_training_datasets_unique.sdf']
3305,Cc1c(Cc2ccccc2C(O)c2ccccc2)c2c(n1CC(=O)[O-])CCNC2=O,O,0,0,3.1,['3.1'],['combined_training_datasets_unique.sdf']
3306,Cc1c(Cc2ccccc2S(=O)(=O)c2cccc(Cl)c2)c2c(n1CC(=O)[O-])CCNC2=O,O,0,0,3.1,['3.1'],['combined_training_datasets_unique.sdf']
3307,Cc1c(Cc2ccccc2S(=O)(=O)c2ccccc2)c2c(n1CC(=O)[O-])CC(C)(C)NC2=O,O,0,0,3.0,['3.0'],['combined_training_datasets_unique.sdf']
3308,Cc1c(Cc2ccccc2S(=O)(=O)c2ccccc2)c2c(n1CC(=O)[O-])CCN(C(C)C)C2=O,O,0,0,2.9,['2.9'],['combined_training_datasets_unique.sdf']
3309,Cc1c(Cc2ccccc2S(=O)(=O)c2ccccc2)c2c(n1CC(=O)[O-])CCN(C)C2=O,O,0,0,2.9,['2.9'],['combined_training_datasets_unique.sdf']
3310,Cc1c(Cc2ccccc2S(=O)(=O)c2ccccc2)c2c(n1CC(=O)[O-])CCN(Cc1ccccc1)C2=O,O,0,0,3.3,['3.3'],['combined_training_datasets_unique.sdf']
3311,Cc1c(Cc2ccccc2S(=O)(=O)c2ccccc2)c2c(n1CC(=O)[O-])CCNC2=O,O,0,0,3.0,['3.0'],['combined_training_datasets_unique.sdf']
3312,Cc1c(Cl)ccc2c1nnn2O,O,0,0,4.09,['4.09'],['combined_training_datasets_unique.sdf']
3313,Cc1c(Cl)cccc1C(=O)[O-],O,0,0,3.43,['3.43'],['combined_training_datasets_unique.sdf']
3314,Cc1c(Cl)cccc1Nc1ccccc1CC(=O)[O-],O,0,0,4.3,['4.3'],['combined_training_datasets_unique.sdf']
3315,Cc1c(F)cccc1[C@H]1COC(N)=[NH+]1,O,0,0,8.07,['8.07'],['combined_training_datasets_unique.sdf']
3316,Cc1c(I)cccc1C(=O)[O-],O,0,0,3.26,['3.26'],['combined_training_datasets_unique.sdf']
3317,Cc1c(N(C)C)c(=O)n(-c2ccccc2)n1C,O,0,0,4.48,['4.48'],['combined_training_datasets_unique.sdf']
3318,Cc1c(N)ccc2c1-c1c(ccc3ccccc13)C2,O,0,0,4.49,['4.49'],['combined_training_datasets_unique.sdf']
3319,Cc1c(N)ccc2c1-c1ccccc1C2,O,0,0,4.83,['4.83'],['combined_training_datasets_unique.sdf']
3320,Cc1c(N2CCCCCC2)nc(C2CC2)nc1N1CC(=O)C1,O,0,0,6.4,['6.4'],['combined_training_datasets_unique.sdf']
3321,Cc1c(N2CCCCCC2)nc(C2CC2)nc1N1CC(C#N)C1,O,0,0,6.4,['6.4'],['combined_training_datasets_unique.sdf']
3322,Cc1c(OCC[NH+](C)C)no[n+]1[O-],O,0,0,7.9,['7.9'],['combined_training_datasets_unique.sdf']
3323,Cc1c(OCC[NH3+])no[n+]1[O-],O,0,0,8.7,['8.7'],['combined_training_datasets_unique.sdf']
3324,Cc1c([O-])c(=O)ccn1C,O,0,0,9.705,['9.705'],['combined_training_datasets_unique.sdf']
3325,Cc1c2ccccc2c(C[NH+]2CCOCC2)c2ccccc12,O,0,0,6.6,['6.6'],['combined_training_datasets_unique.sdf']
3326,Cc1c[n+](C)c(=O)[nH]c1N,O,0,0,4.76,['4.76'],['combined_training_datasets_unique.sdf']
3327,Cc1c[n+]([C@@H]2C[C@@H](O)[C@H](CO)O2)c(=O)[nH]c1N,O,0,0,4.4,['4.4'],['combined_training_datasets_unique.sdf']
3328,Cc1c[nH+]c(C)[nH]1,O,0,0,8.39,['8.39'],['combined_training_datasets_unique.sdf']
3329,Cc1c[nH+]c(N2CCc3ccccc3C2)cc1N,O,0,0,8.7,['8.7'],['combined_training_datasets_unique.sdf']
3330,Cc1c[nH+]c(N2CCc3ccccc3C2)cc1NCCO,O,0,0,9.0,['9.0'],['combined_training_datasets_unique.sdf']
3331,Cc1c[nH+]ccc1N,O,0,0,9.15,['9.15'],['combined_training_datasets_unique.sdf']
3332,Cc1c[nH]c(C(=O)[O-])c1,O,0,0,4.6,['4.6'],['combined_training_datasets_unique.sdf']
3333,Cc1c[nH]c2c(Nc3cccc(Cl)c3)ncc(C(=O)N3CCOCC3)c12,O,0,0,5.8,['5.8'],['combined_training_datasets_unique.sdf']
3334,Cc1c[nH]cc1C(=O)[O-],O,0,0,5.65,['5.65'],['combined_training_datasets_unique.sdf']
3335,Cc1cc(-c2cc(C)[nH]n2)n[nH]1,O,0,0,2.8,['2.8'],['combined_training_datasets_unique.sdf']
3336,Cc1cc(-c2cccc(Cl)c2)ncc1C1CCCN1C(=O)c1cnccn1,O,0,0,4.1,['4.1'],['combined_training_datasets_unique.sdf']
3337,Cc1cc(-c2cccc(Cl)c2)ncc1C1CCCN1C(=O)c1cncs1,O,0,0,4.2,['4.2'],['combined_training_datasets_unique.sdf']
3338,Cc1cc(-c2ccccc2)n[n+](C)c1NCC[NH+]1CCOCC1,O,0,0,5.12,['5.12'],['combined_training_datasets_unique.sdf']