Solute SMILES,Solvent SMILES,Solute CAS,Solute IUPAC,pKa (avg),pKa (all),Source (all)
CCOC(=O)C(C#N)C1=C(C(=C(C(=C1F)F)C(F)(F)F)F)F,CS(=O)C,32251-53-9,"ethyl 2-cyano-2-[2,3,5,6-tetrafluoro-4-(trifluoromethyl)phenyl]acetate",3,"[3.0, 3.0]","['a_unified_view_to_bronsted_acidity_scales.pdf', 'Ejoc202001649-sup-00001-misc_information.pdf']"
CCOC(=O)C(C#N)C1=C(C(=C(C(=C1F)F)Cl)F)F,C(CCl)Cl,55810-56-5,"ethyl 2-(4-chloro-2,3,5,6-tetrafluorophenyl)-2-cyanoacetate",52.2,[52.2],['leito_acids']
CCOC(=O)C(C#N)C1=C(C(=C(C(=C1F)F)Cl)F)F,CC#N,55810-56-5,"ethyl 2-(4-chloro-2,3,5,6-tetrafluorophenyl)-2-cyanoacetate",17.39,"[17.39, 17.39]","['a_unified_view_to_bronsted_acidity_scales.pdf', 'leito_acids']"
CCOC(=O)C(C#N)C1=C(C(=C(C(=C1F)F)Cl)F)F,CS(=O)C,55810-56-5,"ethyl 2-(4-chloro-2,3,5,6-tetrafluorophenyl)-2-cyanoacetate",4.5,[4.5],['a_unified_view_to_bronsted_acidity_scales.pdf']
CCOC(=O)C(C#N)C1=C(C(=C(C(=C1F)F)F)F)F,C(CCl)Cl,2340-87-6,"ethyl 2-cyano-2-(2,3,4,5,6-pentafluorophenyl)acetate",52.5,"[52.5, 52.5]","['Ejoc202001649-sup-00001-misc_information.pdf', 'leito_acids']"
CCOC(=O)C(C#N)C1=C(C(=C(C(=C1F)F)F)F)F,CC#N,2340-87-6,"ethyl 2-cyano-2-(2,3,4,5,6-pentafluorophenyl)acetate",17.745,"[17.75, 17.75, 17.73, 17.75]","['MeCN_Acids_COSMO-RS_2008_Table.pdf', 'a_unified_view_to_bronsted_acidity_scales.pdf', 'Ejoc202001649-sup-00001-misc_information.pdf', 'leito_acids']"
CCOC(=O)C(C#N)C1=C(C(=C(C(=C1F)F)F)F)F,CS(=O)C,2340-87-6,"ethyl 2-cyano-2-(2,3,4,5,6-pentafluorophenyl)acetate",4.9,"[4.7, 5.1]","['a_unified_view_to_bronsted_acidity_scales.pdf', 'Ejoc202001649-sup-00001-misc_information.pdf']"
CCOC(=O)C(C#N)C1=C(C(=C(C(=C1F)F)F)F)F,O,2340-87-6,"ethyl 2-cyano-2-(2,3,4,5,6-pentafluorophenyl)acetate",5.89,[5.89],['Ejoc202001649-sup-00001-misc_information.pdf']
CCOC(=O)C(C#N)C1=C(C(=CC(=C1F)F)F)F,CC#N,55852-22-7,"ethyl 2-cyano-2-(2,3,5,6-tetrafluorophenyl)acetate",18.08,[18.08],['leito_acids']
CCOC(=O)C(C#N)C1=C(C(=NC(=C1F)F)F)F,C(CCl)Cl,55810-61-2,"ethyl 2-cyano-2-(2,3,5,6-tetrafluoropyridin-4-yl)acetate",49.4,[49.4],['leito_acids']
CCOC(=O)C(C#N)C1=C(C(=NC(=C1F)F)F)F,CC#N,55810-61-2,"ethyl 2-cyano-2-(2,3,5,6-tetrafluoropyridin-4-yl)acetate",14.9,"[14.9, 14.9]","['a_unified_view_to_bronsted_acidity_scales.pdf', 'leito_acids']"
CCOC(=O)C(C#N)C1=C(C(=NC(=C1F)F)F)F,CS(=O)C,55810-61-2,"ethyl 2-cyano-2-(2,3,5,6-tetrafluoropyridin-4-yl)acetate",3.2,[3.2],['a_unified_view_to_bronsted_acidity_scales.pdf']
CCOC(=O)C(C#N)C1=C(C2=C(C(=C1F)F)C(=C(C(=C2F)F)F)F)F,C(CCl)Cl,62325-34-2,"ethyl 2-cyano-2-(1,3,4,5,6,7,8-heptafluoronaphthalen-2-yl)acetate",52,[52.0],['leito_acids']
CCOC(=O)C(C#N)C1=C(C2=C(C(=C1F)F)C(=C(C(=C2F)F)F)F)F,CC#N,62325-34-2,"ethyl 2-cyano-2-(1,3,4,5,6,7,8-heptafluoronaphthalen-2-yl)acetate",17.5,"[17.5, 17.5]","['a_unified_view_to_bronsted_acidity_scales.pdf', 'leito_acids']"
CCOC(=O)C(C#N)C1=C(F)C(=C(Cl)C(=C1F)F)F,CC#N,55810-56-5,"ethyl 2-(4-chloro-2,3,5,6-tetrafluorophenyl)-2-cyanoacetate",17.385,"[17.39, 17.38]","['MeCN_Acids_COSMO-RS_2008_Table.pdf', 'Ejoc202001649-sup-00001-misc_information.pdf']"
CCOC(=O)C(C#N)C1=C(F)C(=CC(=C1F)F)F,CC#N,55852-22-7,"ethyl 2-cyano-2-(2,3,5,6-tetrafluorophenyl)acetate",18.075,"[18.08, 18.07]","['MeCN_Acids_COSMO-RS_2008_Table.pdf', 'Ejoc202001649-sup-00001-misc_information.pdf']"
CCOC(=O)C(C#N)C1=C(F)C(=CC(=C1F)F)F,CS(=O)C,55852-22-7,"ethyl 2-cyano-2-(2,3,5,6-tetrafluorophenyl)acetate",4.9,[4.9],['Ejoc202001649-sup-00001-misc_information.pdf']
CCOC(=O)C(C#N)C1=C(F)C(=NC(=C1F)F)F,C(CCl)Cl,55810-61-2,ethyl 2-cyano-2-(perfluoropyridin-4-yl)acetate,49.4,[49.4],['Ejoc202001649-sup-00001-misc_information.pdf']
CCOC(=O)C(C#N)C1=C(F)C(=NC(=C1F)F)F,CC#N,55810-61-2,ethyl 2-cyano-2-(perfluoropyridin-4-yl)acetate,14.895,"[14.9, 14.89]","['MeCN_Acids_COSMO-RS_2008_Table.pdf', 'Ejoc202001649-sup-00001-misc_information.pdf']"
CCOC(=O)C(C#N)C1=C(F)C(=NC(=C1F)F)F,CS(=O)C,55810-61-2,ethyl 2-cyano-2-(perfluoropyridin-4-yl)acetate,3.2,[3.2],['Ejoc202001649-sup-00001-misc_information.pdf']
CCOC(=O)C(C#N)C1=C(F)C2=C(F)C(=C(F)C(=C2C(=C1F)F)F)F,C(CCl)Cl,62325-34-2,"ethyl 2-cyano-2-(1,3,4,5,6,7,8-heptafluoronaphthalen-2-yl)acetate",52,[52.0],['Ejoc202001649-sup-00001-misc_information.pdf']
CCOC(=O)C(C#N)C1=C(F)C2=C(F)C(=C(F)C(=C2C(=C1F)F)F)F,CC#N,62325-34-2,"ethyl 2-cyano-2-(1,3,4,5,6,7,8-heptafluoronaphthalen-2-yl)acetate",17.49,"[17.5, 17.48]","['MeCN_Acids_COSMO-RS_2008_Table.pdf', 'Ejoc202001649-sup-00001-misc_information.pdf']"
CCOC(=O)C(C1=C(C(=C(C(=C1F)F)F)F)F)C(=O)OCC,CC#N,1582-05-4,"diethyl 2-(2,3,4,5,6-pentafluorophenyl)propanedioate",22.86,"[22.85, 22.88, 22.85]","['MeCN_Acids_COSMO-RS_2008_Table.pdf', 'Ejoc202001649-sup-00001-misc_information.pdf', 'leito_acids']"
Cl,C(CCl)Cl,7647-01-0,chlorane,45.2,"[45.2, 45.2, 45.2]","['pKa_values_of_acids_and_bases_in_MeCN_DCE_DMSO_H2O_THF_C7_DME.pdf', 'Ejoc202001649-sup-00001-misc_information.pdf', 'leito_acids']"
Cl,CC#N,7647-01-0,chlorane,10.1,"[8.9, 10.3, 10.3, 10.3, 10.3, 10.3, 10.3]","['MeCN_Acids_COSMO-RS_2008_Table.pdf', 'pKa_values_of_acids_and_bases_in_MeCN_DCE_DMSO_H2O_THF_C7_DME.pdf', 'DCE_2011_pKa_Table_MeCN.pdf', 'a_unified_view_to_bronsted_acidity_scales.pdf', 'pKa_values_of_acids_in_acetonitrile.pdf', 'Ejoc202001649-sup-00001-misc_information.pdf', 'leito_acids']"
Cl,CN(C)C=O,7647-01-0,chlorane,2.36,[2.36],['Ejoc202001649-sup-00001-misc_information.pdf']
Cl,CS(=O)C,7647-01-0,chlorane,-2,"[-2.0, -2.0]","['pKa_values_of_acids_and_bases_in_MeCN_DCE_DMSO_H2O_THF_C7_DME.pdf', 'Ejoc202001649-sup-00001-misc_information.pdf']"
Cl,O,7647-01-0,chlorane,-5.9,"[-5.9, -5.9]","['pKa_values_of_acids_and_bases_in_MeCN_DCE_DMSO_H2O_THF_C7_DME.pdf', 'Ejoc202001649-sup-00001-misc_information.pdf']"
CN(C)[P+](N)(N(C)C)N(C)C,C1CCOC1,-,amino-tris(dimethylamino)phosphanium,19.7,[19.7],['Bases_pKa_values_MeCN_DMSO_THF_Water.pdf']
CN(C)[P+](N)(N(C)C)N(C)C,CC#N,-,amino-tris(dimethylamino)phosphanium,25.85,[25.85],['Bases_pKa_values_MeCN_DMSO_THF_Water.pdf']
CN(C)[P+](N)(N(C)C)N(C)C,CS(=O)C,-,amino-tris(dimethylamino)phosphanium,16.4,[16.4],['Bases_pKa_values_MeCN_DMSO_THF_Water.pdf']
CN(C)[P+](N)(N(C)C)N(C)C,O,-,amino-tris(dimethylamino)phosphanium,15.1,[15.1],['Bases_pKa_values_MeCN_DMSO_THF_Water.pdf']
CN(C)[P+](NC1=CC=CC=C1)(N(C)C)N(C)C,C1CCOC1,-,anilino-tris(dimethylamino)phosphanium,15.3,[15.3],['Bases_pKa_values_MeCN_DMSO_THF_Water.pdf']
CN(C)[P+](NC1=CC=CC=C1)(N(C)C)N(C)C,CC#N,-,anilino-tris(dimethylamino)phosphanium,21.26,[21.26],['Bases_pKa_values_MeCN_DMSO_THF_Water.pdf']
CN(C)[P+](NC1=CC=CC=C1)(N(C)C)N(C)C,CS(=O)C,-,anilino-tris(dimethylamino)phosphanium,11.1,[11.1],['Bases_pKa_values_MeCN_DMSO_THF_Water.pdf']
CN(C)[P+](NC1=CC=CC=C1)(N(C)C)N(C)C,O,-,anilino-tris(dimethylamino)phosphanium,10.64,[10.64],['Bases_pKa_values_MeCN_DMSO_THF_Water.pdf']
CN(C)C1=C(F)C(=C(NC2=C(F)C(=C(F)C(=C2F)F)F)C(=C1F)F)F,CC#N,80588-34-7,"2,3,5,6-tetrafluoro-N1,N1-dimethyl-N4-(perfluorophenyl)benzene-1,4-diamine",25.125,"[25.12, 25.13, 25.13, 25.12]","['MeCN_Acids_COSMO-RS_2008_Table.pdf', 'pKa_values_of_acids_in_acetonitrile.pdf', 'Ejoc202001649-sup-00001-misc_information.pdf', 'leito_acids']"
CN(C)C1=C(F)C(=C(NC2=C(F)C(=C(F)C(=C2F)F)F)C(=C1F)F)F,CS(=O)C,80588-34-7,"2,3,5,6-tetrafluoro-N1,N1-dimethyl-N4-(perfluorophenyl)benzene-1,4-diamine",12.7,[12.7],['Ejoc202001649-sup-00001-misc_information.pdf']
CN(C)C1=CC=C(C=C1)C(=O)O,CC#N,619-84-1,4-(dimethylamino)benzoic acid,23,[23.0],['MeCN_Acids_COSMO-RS_2008_Table.pdf']
CN1C=[NH+]C2=C1C(N(C)C(N2C)=O)=O,CC#N,,"1,3,7-trimethylpurin-7-ium-2,6-dione",7.51,[7.51],['pKa_values_of_nitrogen_heterocycles.pdf']
CN1C=[NH+]C2=C1C(N(C)C(N2C)=O)=O,O,,"1,3,7-trimethylpurin-7-ium-2,6-dione",0.6,[0.6],['pKa_values_of_nitrogen_heterocycles.pdf']
CN1CCC[NH+]2C1=NCCC2,C1CCOC1,-,"1-methyl-3,4,5,6,7,8-hexahydro-2H-pyrimido[1,2-a]pyrimidin-5-ium",18,[18.0],['Bases_pKa_values_MeCN_DMSO_THF_Water.pdf']
CN1CCC[NH+]2C1=NCCC2,CC#N,-,"1-methyl-3,4,5,6,7,8-hexahydro-2H-pyrimido[1,2-a]pyrimidin-5-ium",25.47,[25.47],['Bases_pKa_values_MeCN_DMSO_THF_Water.pdf']
CN1CCC[NH+]2C1=NCCC2,CS(=O)C,-,"1-methyl-3,4,5,6,7,8-hexahydro-2H-pyrimido[1,2-a]pyrimidin-5-ium",14.8,[14.8],['Bases_pKa_values_MeCN_DMSO_THF_Water.pdf']
CN1CCC[NH+]2C1=NCCC2,O,-,"1-methyl-3,4,5,6,7,8-hexahydro-2H-pyrimido[1,2-a]pyrimidin-5-ium",15,[15.0],['Bases_pKa_values_MeCN_DMSO_THF_Water.pdf']
COC(=O)C1C2=CC=CC=C2C3=CC=CC=C13,C(CCl)Cl,3002-30-0,methyl 9H-fluorene-9-carboxylate,58.1,"[58.1, 58.1]","['Ejoc202001649-sup-00001-misc_information.pdf', 'leito_acids']"
COC(=O)C1C2=CC=CC=C2C3=CC=CC=C13,CC#N,3002-30-0,methyl 9H-fluorene-9-carboxylate,23.534,"[23.53, 23.53, 23.54, 23.54, 23.53]","['MeCN_Acids_COSMO-RS_2008_Table.pdf', 'a_unified_view_to_bronsted_acidity_scales.pdf', 'pKa_values_of_acids_in_acetonitrile.pdf', 'Ejoc202001649-sup-00001-misc_information.pdf', 'leito_acids']"
COC(=O)C1C2=CC=CC=C2C3=CC=CC=C13,CS(=O)C,3002-30-0,methyl 9H-fluorene-9-carboxylate,10.35,"[10.35, 10.35]","['a_unified_view_to_bronsted_acidity_scales.pdf', 'Ejoc202001649-sup-00001-misc_information.pdf']"
COC(=O)C1C2=CC=CC=C2C3=CC=CC=C13,O,3002-30-0,methyl 9H-fluorene-9-carboxylate,11.5,[11.5],['Ejoc202001649-sup-00001-misc_information.pdf']
COC1=[NH+]C(=CC=C1)OC,CC#N,,"2,6-dimethoxypyridin-1-ium",7.64,[7.64],['pKa_values_of_nitrogen_heterocycles.pdf']
COC1=C(OC)C=C(C=C1)C(C(C#N)C#N)=C(C#N)C#N,C(CCl)Cl,1261286-75-2,,36.1,[36.1],['leito_acids']
COC1=CC(=CC=C1)S(=O)(=O)N,CC#N,58734-57-9,3-methoxybenzenesulfonamide,24.48,[24.48],['MeCN_Acids_COSMO-RS_2008_Table.pdf']
COC1=CC=C(C=C1)[NH3+],CC#N,,(4-methoxyphenyl)azanium,11.86,[11.86],['pKa_values_of_nitrogen_heterocycles.pdf']
COC1=CC=C(C=C1)C(=O)N[S](=O)(=O)C(F)(F)F,CC#N,39063-05-3,4-methoxy-N-(trifluoromethylsulfonyl)benzamide,11.6,"[11.6, 11.6]","['MeCN_Acids_COSMO-RS_2008_Table.pdf', 'Ejoc202001649-sup-00001-misc_information.pdf']"
COC1=CC=C(C=C1)C(=O)NS(=O)(=O)C(F)(F)F,CC#N,39063-05-3,4-methoxy-N-(trifluoromethylsulfonyl)benzamide,11.6,[11.6],['leito_acids']
COC1=CC=C(C=C1)C(C(C#N)C#N)=C(C#N)C#N,C(CCl)Cl,1261286-76-3,,36.1,[36.1],['leito_acids']
COC1=CC=C(C=C1)C(N[S](=O)(=O)C(F)(F)F)=N[S](=O)(=O)C(F)(F)F,CC#N,500721-87-9,"4-methoxy-N,N'-bis(trifluoromethylsulfonyl)benzenecarboximidamide",6.16,"[6.41, 6.09, 6.05, 6.09]","['MeCN_Acids_COSMO-RS_2008_Table.pdf', 'DCE_2011_pKa_Table_MeCN.pdf', 'Ejoc202001649-sup-00001-misc_information.pdf', 'leito_acids']"
COC1=CC=C(C=C1)C2=CC3=C(C=CC=C3)C4=C2O[P](=O)(N[S](=O)(=O)C(F)(F)F)OC5=C4C6=CC=CC=C6C=C5C7=CC=C(OC)C=C7,CC#N,1486486-92-3,-,6.375,"[6.35, 6.4]","['Ejoc202001649-sup-00001-misc_information.pdf', 'leito_acids']"
COC1=CC=C(C=C1)C2=CC3CCCCC3C4=C2OP(=O)(OC5=C(C=C6CCCCC6=C45)C7=CC=C(C=C7)OC)NS(=O)(=O)C(F)(F)F,CC#N,1071853-99-0,"N-[10,16-bis(4-methoxyphenyl)-13-oxo-12,14-dioxa-135-phosphapentacyclo[13.8.0.02,11.03,8.018,23]tricosa-1(15),2,8,10,16-pentaen-13-yl]-1,1,1-trifluoromethanesulfonamide",6.865,"[6.83, 6.9]","['Ejoc202001649-sup-00001-misc_information.pdf', 'leito_acids']"
COC1=CC=C(C=C1)S(=O)(=O)N,CC#N,1129-26-6,4-methoxybenzenesulfonamide,25.09,[25.09],['MeCN_Acids_COSMO-RS_2008_Table.pdf']
COC1=CC=CC=[NH+]1,CC#N,,2-methoxypyridin-1-ium,9.93,[9.93],['pKa_values_of_nitrogen_heterocycles.pdf']
COC1=CC=CC=C1N2CCN(CC2)CCCCNC(=O)C3=CC=C(C=C3)C4=CSC=N4,CC#N,1580000-17-4,"N-[4-[4-(2-methoxyphenyl)piperazin-1-yl]butyl]-4-(1,3-thiazol-4-yl)benzamide",24.03,[24.03],['Ejoc202001649-sup-00001-misc_information.pdf']
CS(=O)(=O)O,CC#N,75-75-2,methanesulfonic acid,9.97,"[9.97, 9.97, 9.97]","['MeCN_Acids_COSMO-RS_2008_Table.pdf', 'pKa_values_of_acids_in_acetonitrile.pdf', 'Ejoc202001649-sup-00001-misc_information.pdf']"
FC(F)(F)[S](=O)(=O)C(C#N)[S](=O)(=O)C(F)(F)F,C(CCl)Cl,174191-48-1,"2,2-bis((trifluoromethyl)sulfonyl)acetonitrile",30,[30.0],['leito_acids']
FC(F)(F)[S](=O)(=O)N[P]1(=O)OC2=C(C=C3C=CC=CC3=C2C4=C(O1)C(=CC5=CC=CC=C45)C6=CC=CC=C6)C7CC=CC=C7,CC#N,1010799-98-0,,6.4,[6.4],['leito_acids']
FC(F)(F)[S](=O)(=O)N[P]1(=O)OC2=C(C3=C(CCCC3)C=C2C4CC=CC=C4)C5=C(O1)C(=CC6=C5CCCC6)C7=CC=CC=C7,CC#N,1261302-62-8,,6.69,"[6.68, 6.7]","['Ejoc202001649-sup-00001-misc_information.pdf', 'leito_acids']"
FC(F)(F)[S](=O)(=O)N[P]1(=O)OC2=C3C=C(C=C2C4=CC(=CC(=C4)C5=CC=CC=C5)C6CC=CC=C6)C7=CC=CC8=C9C=CC=C(C%10=CC3=C(O1)C(=C%10)C%11=CC(=CC(=C%11)C%12=CC=CC=C%12)C%13=CC=CC=C%13)C9=C78,CC#N,1630950-49-0,,6.5,[6.5],['leito_acids']
FC(F)(F)[S](=O)(=O)N[S](=O)(=O)C1=CC=C(Cl)C=C1,CC#N,174788-89-7,4-chloro-N-(trifluoromethylsulfonyl)benzenesulfonamide,5.18,"[5.34, 5.02]","['MeCN_Acids_COSMO-RS_2008_Table.pdf', 'DCE_2011_pKa_Table_MeCN.pdf']"
FC(F)(F)[S](=O)(=O)N[S](=O)(=O)C1=CC=CC=C1,CC#N,174788-87-5,N-(trifluoromethylsulfonyl)benzenesulfonamide,5.89,[5.89],['MeCN_Acids_COSMO-RS_2008_Table.pdf']
FC(F)(F)[S](=O)(=O)N=[P]1(N[P]2(OC3=C(C4=CC=CC=C4C=C3C5=CC=CC=C5)C6=C7C=CC=CC7=CC(=C6O2)C8=CC=CC=C8)=N[S](=O)(=O)C(F)(F)F)OC9=C(CC%10C=CC=CC%10=C9C%11=C(O1)C(=CC%12=CC=CC=C%11%12)C%13=CC=CC=C%13)C%14=CC=CC=C%14,CC#N,2016814-95-0,,4.5,[4.5],['leito_acids']
FC(F)(F)[S](=O)(=O)N=[S](=O)(N[S](=O)(=O)C1=CC=C(Cl)C=C1)C2=CC=C(Cl)C=C2,C(CCl)Cl,174788-95-5,-,37.1,"[37.1, 37.1]","['Ejoc202001649-sup-00001-misc_information.pdf', 'leito_acids']"
FC(F)(F)[S](=O)(=O)N=[S](=O)(N[S](=O)(=O)C1=CC=C(Cl)C=C1)C2=CC=C(Cl)C=C2,CC#N,174788-95-5,-,4.015,"[4.0, 4.03]","['Ejoc202001649-sup-00001-misc_information.pdf', 'leito_acids']"
FC(F)(F)[S](=O)(=O)NC(=N[S](=O)(=O)C(F)(F)F)C1=CC=C(Cl)C=C1,CC#N,500721-95-9,"4-chloro-N,N'-bis((trifluoromethyl)sulfonyl)benzimidamide",5.38,"[5.56, 5.2]","['MeCN_Acids_COSMO-RS_2008_Table.pdf', 'Ejoc202001649-sup-00001-misc_information.pdf']"
FC(F)(F)[S](=O)(=O)NC(=N[S](=O)(=O)C(F)(F)F)C1=CC=CC=C1,CC#N,500721-91-5,"N,N'-bis((trifluoromethyl)sulfonyl)benzimidamide",5.86,"[6.04, 5.68]","['MeCN_Acids_COSMO-RS_2008_Table.pdf', 'Ejoc202001649-sup-00001-misc_information.pdf']"
FC(F)(F)[S](=O)(=O)NC(=O)C1=CC=CC=C1,CC#N,39062-91-4,N-(trifluoromethylsulfonyl)benzamide,11.065,"[11.06, 11.07]","['MeCN_Acids_COSMO-RS_2008_Table.pdf', 'Ejoc202001649-sup-00001-misc_information.pdf']"
FC(F)(F)C(C(C#N)C#N)=C(C#N)C#N,C(CCl)Cl,1261286-81-0,,32.2,[32.2],['leito_acids']
FC(F)(F)C(F)(F)C(F)(F)C(F)(F)[S](=O)(=O)N[P]1(=O)OC2=C(C3=C(CCCC3)C=C2C4CC=CC=C4)C5=C(O1)C(=CC6=C5CCCC6)C7=CC=CC=C7,CC#N,1261302-67-3,,6.7,[6.7],['leito_acids']
FC(F)(F)C(F)(F)C(F)(F)C(F)(F)C(F)(F)C(F)(F)C(F)(F)C(F)(F)[S](=O)(=O)N[P]1(=O)OC2=C(C3=C(CCCC3)C=C2C4CC=CC=C4)C5=C(O1)C(=CC6=C5CCCC6)C7=CC=CC=C7,CC#N,1261302-68-4,-,6.745,"[6.69, 6.8]","['Ejoc202001649-sup-00001-misc_information.pdf', 'leito_acids']"
FC(F)(F)C1=C(C(C#N)C#N)C(=C(C(=C1)C(F)(F)F)C(F)(F)F)C(F)(F)F,C(CCl)Cl,1018330-49-8,"2-(2,3,4,6-tetrakis(trifluoromethyl)phenyl)malononitrile",44.2,"[44.2, 44.2]","['Ejoc202001649-sup-00001-misc_information.pdf', 'leito_acids']"
FC(F)(F)C1=C(C(C#N)C#N)C(=C(C(=C1)C(F)(F)F)C(F)(F)F)C(F)(F)F,CC#N,1018330-49-8,"2-(2,3,4,6-tetrakis(trifluoromethyl)phenyl)malononitrile",10.44,"[10.45, 10.45, 10.45, 10.42, 10.42, 10.45]","['MeCN_Acids_COSMO-RS_2008_Table.pdf', 'DCE_2011_pKa_Table_MeCN.pdf', 'a_unified_view_to_bronsted_acidity_scales.pdf', 'pKa_values_of_acids_in_acetonitrile.pdf', 'Ejoc202001649-sup-00001-misc_information.pdf', 'leito_acids']"
FC(F)(F)C1=C(C(C#N)C#N)C(=C(C(=C1C(F)(F)F)C(F)(F)F)C(F)(F)F)C(F)(F)F,CC#N,-,"2-[2,3,4,5,6-pentakis(trifluoromethyl)phenyl]propanedinitrile",8.86,[8.86],['MeCN_Acids_COSMO-RS_2008_Table.pdf']
FC(F)(F)C1=CC(=CC(=C1)C(C(C#N)C#N)=C(C#N)C#N)C(F)(F)F,C(CCl)Cl,1261286-79-6,,33,[33.0],['leito_acids']
FC(F)(F)C1=CC(=CC(=C1)C2=C3C(=C4C=CC=CC4C2)C5=C6C=CC=CC6=CC(=C5[S](=O)(=O)N[S]3(=O)=O)C7=CC(=CC(=C7)C(F)(F)F)C(F)(F)F)C(F)(F)F,CC#N,1242421-77-7,,8.4,[8.4],['leito_acids']
FC(F)(F)C1=CC(=CC=C1)C(C(C#N)C#N)=C(C#N)C#N,C(CCl)Cl,2226486-85-5,,34.3,[34.3],['leito_acids']
FC1=C(F)C(=C(C(=C1F)F)[S](=O)(=O)N[S](=O)(=O)C2=CC=C(Cl)C=C2)F,CC#N,1171188-85-4,"N-((4-chlorophenyl)sulfonyl)-2,3,4,5,6-pentafluorobenzenesulfonamide",7.56,"[7.57, 7.55, 7.55, 7.57]","['DCE_2011_pKa_Table_MeCN.pdf', 'pKa_values_of_acids_in_acetonitrile.pdf', 'Ejoc202001649-sup-00001-misc_information.pdf', 'leito_acids']"
FC1=C(F)C(=C(C(C#N)C2=C(F)C(=C(C(=C2F)F)C(F)(F)F)F)C(=C1F)F)F,C(CCl)Cl,42238-35-7,"2-(2,3,4,5,6-pentafluorophenyl)-2-[2,3,5,6-tetrafluoro-4-(trifluoromethyl)phenyl]acetonitrile",52.3,"[52.3, 52.3]","['pKa_values_of_acids_and_bases_in_MeCN_DCE_DMSO_H2O_THF_C7_DME.pdf', 'leito_acids']"
FC1=C(F)C(=C(C(C#N)C2=C(F)C(=C(C(=C2F)F)C(F)(F)F)F)C(=C1F)F)F,CC#N,42238-35-7,"2-(2,3,4,5,6-pentafluorophenyl)-2-[2,3,5,6-tetrafluoro-4-(trifluoromethyl)phenyl]acetonitrile",18.1375,"[18.14, 18.14, 18.13, 18.14]","['pKa_values_of_acids_and_bases_in_MeCN_DCE_DMSO_H2O_THF_C7_DME.pdf', 'a_unified_view_to_bronsted_acidity_scales.pdf', 'pKa_values_of_acids_in_acetonitrile.pdf', 'leito_acids']"
FC1=C(F)C(=C(C(C#N)C2=C(F)C(=C(C(=C2F)F)C(F)(F)F)F)C(=C1F)F)F,CS(=O)C,42238-35-7,"2-(2,3,4,5,6-pentafluorophenyl)-2-[2,3,5,6-tetrafluoro-4-(trifluoromethyl)phenyl]acetonitrile",4.9,"[4.9, 4.9]","['pKa_values_of_acids_and_bases_in_MeCN_DCE_DMSO_H2O_THF_C7_DME.pdf', 'a_unified_view_to_bronsted_acidity_scales.pdf']"
FC1=C(F)C(=C(C(C#N)C2=C(F)C(=C(Cl)C(=C2F)F)F)C(=C1F)F)F,C(CCl)Cl,42238-36-8,"2-(4-chloro-2,3,5,6-tetrafluorophenyl)-2-(2,3,4,5,6-pentafluorophenyl)acetonitrile",54.7,[54.7],['Ejoc202001649-sup-00001-misc_information.pdf']
FC1=C(F)C(=C(C(C#N)C2=C(F)C(=C(Cl)C(=C2F)F)F)C(=C1F)F)F,CC#N,42238-36-8,"2-(4-chloro-2,3,5,6-tetrafluorophenyl)-2-(2,3,4,5,6-pentafluorophenyl)acetonitrile",20.36,"[20.36, 20.36]","['MeCN_Acids_COSMO-RS_2008_Table.pdf', 'Ejoc202001649-sup-00001-misc_information.pdf']"
FC1=C(F)C(=C(C(C#N)C2=C(F)C(=C(Cl)C(=C2F)F)F)C(=C1F)F)F,CS(=O)C,42238-36-8,"2-(4-chloro-2,3,5,6-tetrafluorophenyl)-2-(2,3,4,5,6-pentafluorophenyl)acetonitrile",7.5,[7.5],['Ejoc202001649-sup-00001-misc_information.pdf']
FC1=C(F)C(=C(C(C#N)C2=C(F)C(=C(F)C(=C2F)F)F)C(=C1F)F)F,C(CCl)Cl,42238-34-6,"2,2-bis(2,3,4,5,6-pentafluorophenyl)acetonitrile",55.7,[55.7],['pKa_values_of_acids_and_bases_in_MeCN_DCE_DMSO_H2O_THF_C7_DME.pdf']
FC1=C(F)C(=C(C(C#N)C2=C(F)C(=C(F)C(=C2F)F)F)C(=C1F)F)F,CC#N,42238-34-6,"2,2-bis(2,3,4,5,6-pentafluorophenyl)acetonitrile",21.096,"[21.1, 21.1, 21.09, 21.09, 21.1]","['MeCN_Acids_COSMO-RS_2008_Table.pdf', 'pKa_values_of_acids_and_bases_in_MeCN_DCE_DMSO_H2O_THF_C7_DME.pdf', 'pKa_values_of_acids_in_acetonitrile.pdf', 'Ejoc202001649-sup-00001-misc_information.pdf', 'leito_acids']"
FC1=C(F)C(=C(C(C#N)C2=C(F)C(=C(F)C(=C2F)F)F)C(=C1F)F)F,CS(=O)C,42238-34-6,"2,2-bis(2,3,4,5,6-pentafluorophenyl)acetonitrile",7.975,"[8.0, 7.95]","['pKa_values_of_acids_and_bases_in_MeCN_DCE_DMSO_H2O_THF_C7_DME.pdf', 'Ejoc202001649-sup-00001-misc_information.pdf']"
FC1=C(F)C(=C(C(C#N)C2=C(F)C(=C(F)C(=C2F)F)F)C(=C1F)F)F,O,42238-34-6,"2,2-bis(2,3,4,5,6-pentafluorophenyl)acetonitrile",9.5,[9.5],['Ejoc202001649-sup-00001-misc_information.pdf']
FC1=C(F)C(=C(C(C#N)C2=CC=C(C=C2)C(F)(F)F)C(=C1F)F)F,C(CCl)Cl,42238-35-7,2-(perfluorophenyl)-2-(4-(trifluoromethyl)phenyl)acetonitrile,52.3,[52.3],['Ejoc202001649-sup-00001-misc_information.pdf']
FC1=C(F)C(=C(C(C#N)C2=CC=C(C=C2)C(F)(F)F)C(=C1F)F)F,CC#N,42238-35-7,2-(perfluorophenyl)-2-(4-(trifluoromethyl)phenyl)acetonitrile,18.135,"[18.14, 18.13]","['MeCN_Acids_COSMO-RS_2008_Table.pdf', 'Ejoc202001649-sup-00001-misc_information.pdf']"
FC1=C(F)C(=C(C(C#N)C2=CC=C(C=C2)C(F)(F)F)C(=C1F)F)F,CS(=O)C,42238-35-7,2-(perfluorophenyl)-2-(4-(trifluoromethyl)phenyl)acetonitrile,4.9,[4.9],['Ejoc202001649-sup-00001-misc_information.pdf']
FC1=C(F)C(=C(C(C#N)C2=CC=CC=C2)C(=C1F)F)F,CC#N,42238-33-5,"2-(2,3,4,5,6-pentafluorophenyl)-2-phenylacetonitrile",26.15,"[26.14, 26.16]","['MeCN_Acids_COSMO-RS_2008_Table.pdf', 'Ejoc202001649-sup-00001-misc_information.pdf']"
FC1=C(F)C(=C(C(C#N)C2=CC=CC=C2)C(=C1F)F)F,CS(=O)C,42238-33-5,"2-(2,3,4,5,6-pentafluorophenyl)-2-phenylacetonitrile",12.8,[12.8],['Ejoc202001649-sup-00001-misc_information.pdf']
FC1=C(F)C(=C(C2C3=C(C(=C(F)C(=C3F)F)F)C4=C2C(=C(F)C(=C4F)F)F)C(=C1F)F)F,CC#N,63264-80-2,"1,2,3,4,5,6,7,8-octafluoro-9-(2,3,4,5,6-pentafluorophenyl)-9H-fluorene",18.88,[18.88],['pKa_values_of_acids_and_bases_in_MeCN_DCE_DMSO_H2O_THF_C7_DME.pdf']