Solute SMILES,Solvent SMILES,Solute CAS,Solute IUPAC,pKa (avg),pKa (all),Source (all)
C(C(C(Cl)(Cl)Cl)(Cl)Cl)[NH3+:4],O,0,0,6.58,['6.58'],['hunt_et_al']
CC(C)(C=C)[NH2+:11]C(C)(C)C=C,O,0,0,10.1,['10.1'],['hunt_et_al']
CCC[C@@H](c1ccccc1)[NH3+:11],O,0,0,9.45,['9.45'],['hunt_et_al']
C[C@@H](c1cccc(c1)Br)[NH3+:9],O,0,0,9.88,['9.88'],['hunt_et_al']
C[C@@H](c1ccccc1Cl)[NH3+:9],O,0,0,8.8,['8.8'],['hunt_et_al']
C[C@@H](c1ccc(cc1)Cl)[NH3+:9],O,0,0,9.1,['9.1'],['hunt_et_al']
C[C@@H](c1ccc(cc1)F)[NH3+:9],O,0,0,9.22,['9.22'],['hunt_et_al']
C[C@@H](c1ccc(cc1)OC)[NH3+:10],O,0,0,9.47,['9.47'],['hunt_et_al']
Cc1cccc(c1)[C@H](C)[NH3+:10],O,0,0,9.41,['9.41'],['hunt_et_al']
C[C@@H](c1cccc(c1)N(=O)=O)[NH3+:9],O,0,0,8.56,['8.56'],['hunt_et_al']
C[C@@H](c1ccc(cc1)N(=O)=O)[NH3+:9],O,0,0,8.5,['8.5'],['hunt_et_al']
C[C@@H](c1cccc(c1)C(F)(F)F)[NH3+:10],O,0,0,8.77,['8.77'],['hunt_et_al']
CCCCC[C@H](c1ccccc1)[NH3+:13],O,0,0,8.87,['8.87'],['hunt_et_al']
c1cc(c(cc1[C@H](C[NH3+:9])O)Cl)Cl,O,0,0,8.78,['8.78'],['hunt_et_al']
COc1ccc(c(c1)C[C@H](CO)[NH3+:12])OC,O,0,0,9.18,['9.18'],['hunt_et_al']
CC(C)C[C@@H](c1ccccc1)[NH3+:12],O,0,0,9.47,['9.47'],['hunt_et_al']
CC(C)C[C@@H](c1ccc(cc1)Cl)[NH3+:12],O,0,0,8.47,['8.47'],['hunt_et_al']
CC(C)C[C@@H](c1ccc(cc1)F)[NH3+:12],O,0,0,9.25,['9.25'],['hunt_et_al']
CC(C)CC[C@@H](c1ccccc1)[NH3+:13],O,0,0,9.02,['9.02'],['hunt_et_al']
CCCC[C@@H](c1ccccc1)[NH3+:12],O,0,0,9.45,['9.45'],['hunt_et_al']
CCCC[C@@H](c1ccc(cc1)Cl)[NH3+:12],O,0,0,8.85,['8.85'],['hunt_et_al']
CCCC[C@@H](c1ccc(cc1)F)[NH3+:12],O,0,0,9.15,['9.15'],['hunt_et_al']
CC[C@H](c1ccccc1)[NH3+:10],O,0,0,9.3,['9.3'],['hunt_et_al']
CC[C@@H](C)C(=O)[OH:7],O,0,0,4.81,['4.81'],['hunt_et_al']
CC[C@H](c1ccc(cc1)Br)[NH3+:10],O,0,0,9.08,['9.08'],['hunt_et_al']
CC[C@H](c1ccc(cc1)Cl)[NH3+:10],O,0,0,9.1,['9.1'],['hunt_et_al']
c1ccc(cc1)CC[NH+:13](CCO)CCO,O,0,0,7.6,['7.6'],['hunt_et_al']
CC(C)[NH2+:12]C[C@@H](c1ccccc1Br)O,O,0,0,9.4,['9.4'],['hunt_et_al']
CC(C)[NH2+:12]C[C@@H](c1cccc(c1)Br)O,O,0,0,9.37,['9.37'],['hunt_et_al']
CC(C)[NH2+:12]C[C@@H](c1ccc(cc1)Br)O,O,0,0,9.26,['9.26'],['hunt_et_al']
CCCCOc1ccc(cc1OC)[C@H](C[NH2+:15]C)O,O,0,0,9.51,['9.51'],['hunt_et_al']
CC(C)(C)[NH2+:13]C[C@@H](c1ccc(c(c1)F)F)O,O,0,0,9.51,['9.51'],['hunt_et_al']
CCCC[NH2+:15]C[C@@H](c1ccc(c(c1)OC)OC)O,O,0,0,9.56,['9.56'],['hunt_et_al']
CC[C@@H](C)[NH2+:15]C[C@@H](c1ccc(c(c1)OC)OC)O,O,0,0,9.48,['9.48'],['hunt_et_al']
CC(C)(C)[NH2+:15]C[C@@H](c1ccc(c(c1)OC)OC)O,O,0,0,9.73,['9.73'],['hunt_et_al']
CC(C)[NH2+:12]C[C@@H](c1ccccc1Cl)O,O,0,0,9.43,['9.43'],['hunt_et_al']
CC(C)[NH2+:12]C[C@@H](c1cccc(c1)Cl)O,O,0,0,9.42,['9.42'],['hunt_et_al']
CC(C)[NH2+:12]C[C@@H](c1ccc(cc1)Cl)O,O,0,0,9.21,['9.21'],['hunt_et_al']
CC(C)[NH2+:14]C[C@@H](c1cccc(c1)C#N)O,O,0,0,9.33,['9.33'],['hunt_et_al']
C[NH2+:16]C[C@@H](c1ccc(cc1)C2CCCCC2)O,O,0,0,9.01,['9.01'],['hunt_et_al']
CC(C)[NH2+:12]C[C@@H](c1ccc(c(c1)Br)Br)O,O,0,0,9.29,['9.29'],['hunt_et_al']
CC[NH+:22](CC)CCCCC(c1ccccc1)(c2ccccc2)O,O,0,0,10.08,['10.08'],['hunt_et_al']
CC[NH+:22](CC)CCCCC(c1ccccc1)c2ccccc2,O,0,0,10.1,['10.1'],['hunt_et_al']
CC[NH+:20](CC)CCC(c1ccccc1)c2ccccc2,O,0,0,10.1,['10.1'],['hunt_et_al']
CC(C)[NH2+:12]C[C@@H](c1ccc(c(c1)F)F)O,O,0,0,9.36,['9.36'],['hunt_et_al']
CC(C)[NH2+:12]C[C@@H](c1cc(cc(c1)O)O)O,O,0,0,9.92,['9.92'],['hunt_et_al']
C[NH+:11](C)C[C@@H](c1ccc(c(c1)O)O)O,O,0,0,9.257,['9.257'],['hunt_et_al']
C[NH+:12](C)C[C@@H](c1ccc(c(c1)OC)O)O,O,0,0,9.52,['9.52'],['hunt_et_al']
CC[NH2+:13]C[C@@H](c1ccc(c(c1)OC)OC)O,O,0,0,9.61,['9.61'],['hunt_et_al']
CC[NH2+:11]C[C@@H](c1cccc(c1)O)O,O,0,0,8.983,['8.983'],['hunt_et_al']
CC(C)[NH2+:12]C[C@@H](c1ccc(cc1)F)O,O,0,0,9.35,['9.35'],['hunt_et_al']
C[NH2+:11]C[C@@H](c1ccc(c(c1)OC)O)O,O,0,0,9.52,['9.52'],['hunt_et_al']
CC(C)C[NH2+:15]C[C@@H](c1ccc(c(c1)OC)OC)O,O,0,0,9.28,['9.28'],['hunt_et_al']
CC(C)[NH2+:12]C[C@@H](c1ccccc1)O,O,0,0,9.5,['9.5'],['hunt_et_al']
CC(C)[NH2+:14]C[C@@H](c1ccc(c(c1)OC)OC)O,O,0,0,9.58,['9.58'],['hunt_et_al']
Cc1ccc(cc1C)[C@H](C[NH2+:14]C(C)C)O,O,0,0,9.38,['9.38'],['hunt_et_al']
CC(C)[NH2+:12]C[C@@H](c1ccccc1I)O,O,0,0,9.32,['9.32'],['hunt_et_al']
CC(C)[NH2+:13]C[C@@H](c1ccccc1OC)O,O,0,0,9.69,['9.69'],['hunt_et_al']
CC(C)[NH2+:13]C[C@@H](c1cccc(c1)OC)O,O,0,0,9.54,['9.54'],['hunt_et_al']
CC(C)[NH2+:13]C[C@@H](c1ccc(cc1)OC)O,O,0,0,9.26,['9.26'],['hunt_et_al']
Cc1ccc(cc1)[C@H](C[NH2+:13]C(C)C)O,O,0,0,9.35,['9.35'],['hunt_et_al']
CC(C)[NH2+:13]C[C@@H](c1ccc(cc1)S(=O)(=O)C)O,O,0,0,9.25,['9.25'],['hunt_et_al']
CC(C)[NH2+:13]C[C@@H](c1ccccc1SC)O,O,0,0,9.41,['9.41'],['hunt_et_al']
CC(C)[NH2+:13]C[C@@H](c1ccc(cc1)SC)O,O,0,0,9.06,['9.06'],['hunt_et_al']
CC(C)[NH2+:12]C[C@@H](c1ccccc1N(=O)=O)O,O,0,0,9.35,['9.35'],['hunt_et_al']
CC(C)[NH2+:12]C[C@@H](c1cccc(c1)N(=O)=O)O,O,0,0,9.21,['9.21'],['hunt_et_al']
CC(C)[NH2+:12]C[C@@H](c1ccc(cc1)N(=O)=O)O,O,0,0,9.27,['9.27'],['hunt_et_al']
CC(C)[NH2+:18]C[C@@H](c1cccc(c1)c2ccccc2)O,O,0,0,9.49,['9.49'],['hunt_et_al']
CC(C)[NH2+:13]C[C@@H](c1ccccc1C(F)(F)F)O,O,0,0,9.31,['9.31'],['hunt_et_al']
CC(C)[NH2+:13]C[C@@H](c1cccc(c1)C(F)(F)F)O,O,0,0,9.3,['9.3'],['hunt_et_al']
C[NH2+:11]CC[C@@H](c1ccccc1)O,O,0,0,9.565,['9.565'],['hunt_et_al']
CC(C)(Cc1ccccc1)[NH2+:12]C,O,0,0,10.37,['10.37'],['hunt_et_al']
c1ccc(cc1)C[NH+:12](CCO)CCO,O,0,0,7.68,['7.68'],['hunt_et_al']
Cc1ccccc1C[NH+:13](CCO)CCO,O,0,0,7.1,['7.1'],['hunt_et_al']
Cc1cccc(c1)C[NH+:13](CCO)CCO,O,0,0,7,['7.0'],['hunt_et_al']
Cc1ccc(cc1)C[NH+:13](CCO)CCO,O,0,0,7.2,['7.2'],['hunt_et_al']
Cc1cc(c(c(c1)C)C[NH+:15](CCO)CCO)C,O,0,0,7.45,['7.45'],['hunt_et_al']
c1cc(cc(c1)Br)C[NH3+:8],O,0,0,8.98,['8.98'],['hunt_et_al']
c1cc(ccc1C[NH3+:8])Br,O,0,0,9.13,['9.13'],['hunt_et_al']
c1cc(ccc1C[NH3+:10])C#N,O,0,0,8.52,['8.52'],['hunt_et_al']
C[NH+:11](C)Cc1cccc(c1)N(=O)=O,O,0,0,8.2,['8.2'],['hunt_et_al']
C[NH+:11](C)Cc1ccc(cc1)N(=O)=O,O,0,0,8.14,['8.14'],['hunt_et_al']
COc1cccc(c1)C[NH2+:15]c2ccc(cc2N(=O)=O)N(=O)=O,O,0,0,-5.07,['-5.07'],['hunt_et_al']
COc1ccc(cc1)C[NH2+:15]c2ccc(cc2N(=O)=O)N(=O)=O,O,0,0,-4.51,['-4.51'],['hunt_et_al']
Cc1cccc(c1)C[NH2+:15]c2ccc(cc2N(=O)=O)N(=O)=O,O,0,0,-4.68,['-4.68'],['hunt_et_al']
Cc1ccc(cc1)C[NH2+:15]c2ccc(cc2N(=O)=O)N(=O)=O,O,0,0,-4.7,['-4.7'],['hunt_et_al']
c1cc(cc(c1)F)C[NH3+:8],O,0,0,9.04,['9.04'],['hunt_et_al']
c1cc(cc(c1)F)C[NH+:12](CCO)CCO,O,0,0,6.5,['6.5'],['hunt_et_al']
c1cc(ccc1C[NH+:12](CCO)CCO)F,O,0,0,6.8,['6.8'],['hunt_et_al']
C[NH+:10](C)Cc1ccc(cc1)F,O,0,0,8.94,['8.94'],['hunt_et_al']
C[NH+:11](C)Cc1cccc(c1)OC,O,0,0,9.04,['9.04'],['hunt_et_al']
C[NH2+:10]Cc1ccc(cc1)OC,O,0,0,9.97,['9.97'],['hunt_et_al']
C[NH2+:9]Cc1cccc(c1)N(=O)=O,O,0,0,8.77,['8.77'],['hunt_et_al']
C[NH2+:9]Cc1ccc(cc1)N(=O)=O,O,0,0,8.63,['8.63'],['hunt_et_al']
c1cc(ccc1C[NH3+:8])N(=O)=O,O,0,0,8.5,['8.5'],['hunt_et_al']
Cc1ccc(cc1)C[NH+:11](C)C,O,0,0,9.22,['9.22'],['hunt_et_al']
CC(=O)c1ccc(cc1)c2ccc(cc2)[NH3+:15],O,0,0,3.98,['3.98'],['hunt_et_al']
C[NH+:8]1CCCCCC1,O,0,0,10.3,['10.3'],['hunt_et_al']
C[C@@H]1CCC[N@@H+:8](C1)C,O,0,0,10.02,['10.02'],['hunt_et_al']
C[C@@H]1CC[NH2+:8][C@@H](C1)C,O,0,0,10.73,['10.73'],['hunt_et_al']
CC1(CCC[NH2+:8]C1)C,O,0,0,10.38,['10.38'],['hunt_et_al']
C[C@H]1CC(=C)CC[N@@H+:9]1C,O,0,0,9.25,['9.25'],['hunt_et_al']
C[C@@H]1C[N@@H+:9](CCC1=C)C,O,0,0,9.09,['9.09'],['hunt_et_al']
c1cc(c(cc1N(=O)=O)N(=O)=O)[NH+:12]2CCCCC2,O,0,0,-0.38,['-0.38'],['hunt_et_al']
CC[N@H+:9]1CCC[C@H](C1)C,O,0,0,10.33,['10.33'],['hunt_et_al']
CC[NH+:9]1CCC(CC1)C,O,0,0,10.28,['10.28'],['hunt_et_al']
c1ccc(cc1)[C@H]([C@@H]2CCCC[NH2+:13]2)O,O,0,0,9.57,['9.57'],['hunt_et_al']
CC1(CC(CC([NH2+:10]1)(C)C)O)C,O,0,0,10.05,['10.05'],['hunt_et_al']
CC(C)C[NH+:10]1CCCCC1,O,0,0,10.44,['10.44'],['hunt_et_al']
CC(C)[C@H]1CCC[NH2+:9]C1,O,0,0,10.75,['10.75'],['hunt_et_al']
CC(=C1CCC[NH2+:9]C1)C,O,0,0,10.47,['10.47'],['hunt_et_al']
C[C@@H]([NH+:13]1CCCCC1)OC(=O)CC(=C)C,O,0,0,8.37,['8.37'],['hunt_et_al']
C[N@H+:8]1CCCC(=C)C1,O,0,0,9.31,['9.31'],['hunt_et_al']
C[NH+:8]1CCC(=C)CC1,O,0,0,9.03,['9.03'],['hunt_et_al']
C/C=C(\C)/[NH+:10]1CCCCC1,O,0,0,8.35,['8.35'],['hunt_et_al']
CC1(CC(C[NH+:11](C1)C)(C)C)C,O,0,0,9.43,['9.43'],['hunt_et_al']
CC1(CC(C[NH2+:10]C1)(C)C)C,O,0,0,10.1,['10.1'],['hunt_et_al']
CC1(CC(=O)CC([NH2+:10]1)(C)C)C,O,0,0,7.9,['7.9'],['hunt_et_al']
C[C@H]1CC[N@@H+:9]([C@H](C1)C)C,O,0,0,10.09,['10.09'],['hunt_et_al']
C[C@@H]1C[C@@H](C[NH+:9](C1)C)C,O,0,0,10,['10.0'],['hunt_et_al']
c1cc([nH+:6]c(c1)Br)N,O,0,0,2.6,['2.6'],['hunt_et_al']
c1c[nH+:6]c(cc1Cl)N,O,0,0,5.7,['5.7'],['hunt_et_al']
c1cc([nH+:8]cc1C#N)N,O,0,0,3.41,['3.41'],['hunt_et_al']
CCOC(=O)c1ccc[nH+:9]c1N,O,0,0,4.73,['4.73'],['hunt_et_al']
CCOC(=O)c1cc[nH+:9]c(c1)N,O,0,0,5.25,['5.25'],['hunt_et_al']
c1cncc(c1[OH:8])N,O,0,0,11.38,['11.38'],['hunt_et_al']
COc1cccc([nH+:7]1)N,O,0,0,4.64,['4.64'],['hunt_et_al']
COC(=O)c1ccc[nH+:8]c1N,O,0,0,4.78,['4.78'],['hunt_et_al']
COC(=O)c1cc[nH+:8]c(c1)N,O,0,0,5.21,['5.21'],['hunt_et_al']
Cc1cc(c[nH+:7]c1N)N(=O)=O,O,0,0,3.58,['3.58'],['hunt_et_al']
Cc1cc(c([nH+:7]c1)N)N(=O)=O,O,0,0,2.98,['2.98'],['hunt_et_al']
c1cc(c([nH+:6]c1)N)N(=O)=O,O,0,0,2.33,['2.33'],['hunt_et_al']
CC(C)C[NH+:9]1CCOCC1,O,0,0,7.82,['7.82'],['hunt_et_al']
CCCCC[NH+:10]1CCOCC1,O,0,0,7.69,['7.69'],['hunt_et_al']
c1cc(ccc1c2cnc(o2)C(=O)[OH:14])Cl,O,0,0,1.68,['1.68'],['hunt_et_al']
Cc1c(oc(n1)C)C(=O)[OH:10],O,0,0,3.08,['3.08'],['hunt_et_al']
c1ccc(cc1)c2c(nc(o2)c3ccccc3)C(=O)[OH:20],O,0,0,3.4,['3.4'],['hunt_et_al']
c1ccc(cc1)c2c(oc(n2)c3ccccc3)C(=O)[OH:20],O,0,0,-1.44,['-1.44'],['hunt_et_al']
c1ccc(cc1)c2cnc(o2)C(=O)[OH:14],O,0,0,1.78,['1.78'],['hunt_et_al']
Cc1c(c(nc([nH+:10]1)N)C)CC=C,O,0,0,5.1,['5.1'],['hunt_et_al']
CC(C)(C)c1c(c[nH+:9]c(n1)N)Br,O,0,0,2.88,['2.88'],['hunt_et_al']
Cc1c(c(nc([nH+:7]1)N)C)Br,O,0,0,3.3,['3.3'],['hunt_et_al']
c1cc(ccc1c2c[nH+:11]c(nc2)N)Br,O,0,0,3.06,['3.06'],['hunt_et_al']
CC(C)(C)c1cc[nH+:9]c(n1)N,O,0,0,4.58,['4.58'],['hunt_et_al']
c1c(cnc([nH+:6]1)N)C(=O)N,O,0,0,2.06,['2.06'],['hunt_et_al']
CCCc1c([nH+:10]c(nc1C)N)C,O,0,0,5.42,['5.42'],['hunt_et_al']
CC[C@@H](C)Nc1[nH+:11]c(cc(n1)C)C,O,0,0,5.12,['5.12'],['hunt_et_al']
C[NH+:16](C)c1ccc(cc1)c2cnc(nc2)OC,O,0,0,4.31,['4.31'],['hunt_et_al']
Cc1cc(nc(n1)[OH:9])C,O,0,0,10.5,['10.5'],['hunt_et_al']
Cc1cc(nc(n1)C)[OH:9],O,0,0,9.82,['9.82'],['hunt_et_al']
CCCc1c(nc(nc1C)[OH:12])C,O,0,0,10.89,['10.89'],['hunt_et_al']
CC#Cc1c(nc(nc1C)[OH:12])C,O,0,0,9.49,['9.49'],['hunt_et_al']
Cc1c(c(nc(n1)[OH:12])C)CC#C,O,0,0,10.25,['10.25'],['hunt_et_al']
COc1cc(ncn1)[OH:8],O,0,0,8.47,['8.47'],['hunt_et_al']
Cc1cncnc1[OH:8],O,0,0,9.17,['9.17'],['hunt_et_al']
CSc1cc(ncn1)[OH:8],O,0,0,8.52,['8.52'],['hunt_et_al']
c1cc(ccc1c2cnc(nc2)[OH:16])N(=O)=O,O,0,0,8.17,['8.17'],['hunt_et_al']
Cc1c(nc(nc1C)[OH:10])C,O,0,0,10.85,['10.85'],['hunt_et_al']
C[C@H]1C[NH+:9]=C(S1)C(C)(C)C,O,0,0,5.027,['5.027'],['hunt_et_al']
Cc1csc(n1)C(=O)[OH:8],O,0,0,3.18,['3.18'],['hunt_et_al']
CC[C@H]1CSC(=[NH+:8]1)CC,O,0,0,5.36,['5.36'],['hunt_et_al']
C[C@H]1C[NH+:6]=C(S1)C,O,0,0,5.256,['5.256'],['hunt_et_al']
C[C@H]1C[NH+:8]=C(S1)C(C)C,O,0,0,5.164,['5.164'],['hunt_et_al']
CC(C)c1cccc(=O)c(c1Br)[OH:12],O,0,0,4.68,['4.68'],['hunt_et_al']
CC(C)c1cc(c(=O)ccc1Br)[OH:12],O,0,0,4.54,['4.54'],['hunt_et_al']
CC(C)c1ccc(c(=O)c(c1)[OH:12])Br,O,0,0,4.28,['4.28'],['hunt_et_al']
CC(C)c1ccc(c(=O)c(c1Br)[OH:12])Br,O,0,0,4.44,['4.44'],['hunt_et_al']
C1CC2CCC1C[NH2+:9]C2,O,0,0,10.57,['10.57'],['hunt_et_al']
C[NH+:10]1CC2CCC(C1)CC2,O,0,0,10.24,['10.24'],['hunt_et_al']
C1CC[C@@H]2C[NH2+:10]CC[C@H]2C1,O,0,0,11.32,['11.32'],['hunt_et_al']
C1CC[C@@H]2[C@H](C1)CCC[NH2+:10]2,O,0,0,11.29,['11.29'],['hunt_et_al']
C[C@@H]1C[C@@H]([C@@H]2CCCC[C@@H]2[NH2+:11]1)Cl,O,0,0,9.67,['9.67'],['hunt_et_al']
C[C@H]1C[C@@H]([C@@H]2CCCC[C@H]2[NH2+:11]1)ON(=O)=O,O,0,0,9.36,['9.36'],['hunt_et_al']
c1c(cc(c2c1COCO2)[NH+:13](CCCl)CCCl)Cl,O,0,0,6.9,['6.9'],['hunt_et_al']
c1ccc2c(c1)ccc3c2c(=O)cc(o3)c4cccc(c4)[NH3+:20],O,0,0,3.23,['3.23'],['hunt_et_al']
c1ccc2c(c1)ccc3c2c(=O)cc(o3)c4ccc(cc4)[NH3+:20],O,0,0,2.97,['2.97'],['hunt_et_al']
C[NH2+:20]CCCN1c2ccccc2CCc3c1cccc3,O,0,0,10.16,['10.16'],['hunt_et_al']
C[NH+:19](C)CCCN1c2ccccc2Sc3c1cc(cc3)Cl,O,0,0,9.24,['9.24'],['hunt_et_al']
CC(=O)c1cc(ccc1N(=O)=O)[NH3+:9],O,0,0,-0.14,['-0.14'],['hunt_et_al']
c1ccc(cc1)C[NH2+:14]c2ccccc2,O,0,0,4.04,['4.04'],['hunt_et_al']
c1ccc(cc1)Cc2ccc(cc2)[NH3+:14],O,0,0,4.78,['4.78'],['hunt_et_al']
CC[NH+:11](CC)c1ccc(cc1)Br,O,0,0,5.81,['5.81'],['hunt_et_al']
Cc1cc(ccc1Br)[NH3+:8],O,0,0,4.05,['4.05'],['hunt_et_al']
c1cc(c(cc1N(=O)=O)[NH3+:7])Br,O,0,0,0.52,['0.52'],['hunt_et_al']
c1cc(c(cc1[NH3+:7])N(=O)=O)Br,O,0,0,1.8,['1.8'],['hunt_et_al']
CCCCOc1ccc(c(c1)N(=O)=O)[NH3+:11],O,0,0,0.74,['0.74'],['hunt_et_al']
c1cc(c(cc1[NH3+:7])Cl)F,O,0,0,3.66,['3.66'],['hunt_et_al']
COc1ccc(cc1[NH3+:8])Cl,O,0,0,3.56,['3.56'],['hunt_et_al']
Cc1cc(ccc1[NH3+:8])Cl,O,0,0,3.848,['3.848'],['hunt_et_al']
CS(=O)(=O)c1ccc(c(c1)Cl)[NH3+:8],O,0,0,-0.41,['-0.41'],['hunt_et_al']
CS(=O)(=O)c1ccc(cc1Cl)[NH3+:8],O,0,0,0.47,['0.47'],['hunt_et_al']
CSc1ccc(c(c1)Cl)[NH3+:8],O,0,0,2.56,['2.56'],['hunt_et_al']
CSc1ccc(cc1Cl)[NH3+:8],O,0,0,3.38,['3.38'],['hunt_et_al']
c1cc(c(cc1N(=O)=O)Cl)[NH3+:7],O,0,0,-0.94,['-0.94'],['hunt_et_al']
c1cc(c(cc1N(=O)=O)[NH3+:7])Cl,O,0,0,0.64,['0.64'],['hunt_et_al']
c1c(cc(cc1[NH3+:9])N(=O)=O)C#N,O,0,0,0.45,['0.45'],['hunt_et_al']
c1cc(ccc1C2CCC2)[NH3+:11],O,0,0,4.8,['4.8'],['hunt_et_al']
c1cc(ccc1C2CCCC2)[NH3+:12],O,0,0,5.1,['5.1'],['hunt_et_al']
c1ccc(c(c1)C2CC2)[NH3+:10],O,0,0,4.3,['4.3'],['hunt_et_al']
c1cc(ccc1C2CC2)[NH3+:10],O,0,0,4.9,['4.9'],['hunt_et_al']
c1cc(c(cc1Br)[NH3+:7])Br,O,0,0,1.44,['1.44'],['hunt_et_al']
CCCCOc1ccc(c(c1)[NH3+:15])OCCCC,O,0,0,3.96,['3.96'],['hunt_et_al']
c1cc(c(c(c1)Cl)[NH3+:7])Cl,O,0,0,0.422,['0.422'],['hunt_et_al']
c1c(cc(cc1Cl)Cl)[NH3+:7],O,0,0,2.371,['2.371'],['hunt_et_al']
CSc1cc(c(cc1Cl)[NH3+:8])Cl,O,0,0,1.7,['1.7'],['hunt_et_al']
CSc1c(cc(cc1Cl)[NH3+:8])Cl,O,0,0,1.67,['1.67'],['hunt_et_al']
CCOc1ccc(c(c1)[NH3+:11])OCC,O,0,0,3.94,['3.94'],['hunt_et_al']
CC[NH+:11](CC)c1ccc(cc1)N(=O)=O,O,0,0,1.75,['1.75'],['hunt_et_al']
CSc1c(cc(cc1I)[NH3+:8])I,O,0,0,1.15,['1.15'],['hunt_et_al']
COc1ccc(c(c1)[NH3+:9])OC,O,0,0,3.93,['3.93'],['hunt_et_al']
c1cc(c(cc1[NH3+:7])N(=O)=O)N(=O)=O,O,0,0,-1.2,['-1.2'],['hunt_et_al']
c1c(cc(cc1N(=O)=O)N(=O)=O)[NH3+:7],O,0,0,0.229,['0.229'],['hunt_et_al']
CCOC(=O)c1cc(cc(c1)N(=O)=O)[NH3+:10],O,0,0,0.98,['0.98'],['hunt_et_al']
CCC(CC)C[N@@H+:21](CC[N+]1(CCCCC1)C)c2ccccc2,O,0,0,3.79,['3.79'],['hunt_et_al']
c1cc(c(cc1F)N(=O)=O)[NH3+:7],O,0,0,-0.44,['-0.44'],['hunt_et_al']
c1cc(c(cc1[NH3+:7])N(=O)=O)F,O,0,0,2.44,['2.44'],['hunt_et_al']
CCCCCCC[N@@H+:22](CC[N+]1(CCCCC1)C)c2ccccc2,O,0,0,3.21,['3.21'],['hunt_et_al']
CCCCCC[N@@H+:21](CC[N+]1(CCCCC1)C)c2ccccc2,O,0,0,3.13,['3.13'],['hunt_et_al']
CSc1ccc(c(c1)I)[NH3+:8],O,0,0,2.45,['2.45'],['hunt_et_al']
CSc1ccc(cc1I)[NH3+:8],O,0,0,3.44,['3.44'],['hunt_et_al']
c1c(cc(cc1N(=O)=O)I)[NH3+:7],O,0,0,1.44,['1.44'],['hunt_et_al']
CC(C)C[N@@H+:19](CC[N+]1(CCCCC1)C)c2ccccc2,O,0,0,3.02,['3.02'],['hunt_et_al']
CC(C)CC[N@@H+:20](CC[N+]1(CCCCC1)C)c2ccccc2,O,0,0,3.06,['3.06'],['hunt_et_al']
CC(C)c1ccc(cc1)[NH3+:10],O,0,0,4.85,['4.85'],['hunt_et_al']
CC(C)[N@H+:18](CC[N+]1(CCCCC1)C)c2ccccc2,O,0,0,3.26,['3.26'],['hunt_et_al']
CC(C)[NH2+:10]c1ccc(cc1)N(=O)=O,O,0,0,1.32,['1.32'],['hunt_et_al']
CC(C)S(=O)(=O)c1ccc(cc1)[NH3+:10],O,0,0,1.4,['1.4'],['hunt_et_al']
CC(C)Sc1ccc(cc1)[NH3+:10],O,0,0,3.89,['3.89'],['hunt_et_al']
Cc1cc(ccc1C(=O)OC)[NH3+:10],O,0,0,2.73,['2.73'],['hunt_et_al']
COc1ccc(cc1[NH3+:8])N(=O)=O,O,0,0,2.49,['2.49'],['hunt_et_al']
COc1ccc(c(c1)N(=O)=O)[NH3+:8],O,0,0,0.77,['0.77'],['hunt_et_al']
COc1ccc(cc1N(=O)=O)[NH3+:8],O,0,0,3.36,['3.36'],['hunt_et_al']
COc1ccc(c(c1)[NH3+:8])N(=O)=O,O,0,0,-0.72,['-0.72'],['hunt_et_al']
COc1ccc(cc1)Sc2ccc(cc2)[NH3+:14],O,0,0,3.94,['3.94'],['hunt_et_al']
C[N@H+:16](CC[N+]1(CCCCC1)C)c2ccccc2,O,0,0,2.61,['2.61'],['hunt_et_al']
C[NH2+:9]c1ccccc1SC,O,0,0,3.71,['3.71'],['hunt_et_al']
C[N+]1(CCCCC1)CC[NH+:21](c2ccccc2)c3ccccc3,O,0,0,-1.5,['-1.5'],['hunt_et_al']
C[NH2+:8]c1ccc(cc1)N(=O)=O,O,0,0,0.55,['0.55'],['hunt_et_al']
Cc1ccc(cc1[NH3+:8])N(=O)=O,O,0,0,2.345,['2.345'],['hunt_et_al']
Cc1cc(cc(c1)N(=O)=O)[NH3+:8],O,0,0,2.38,['2.38'],['hunt_et_al']
CCCCCCCC[N@@H+:23](CC[N+]1(CCCCC1)C)c2ccccc2,O,0,0,3.32,['3.32'],['hunt_et_al']
CCCCC[N@@H+:20](CC[N+]1(CCCCC1)C)c2ccccc2,O,0,0,2.96,['2.96'],['hunt_et_al']
CCC[C@@H](C)[N@@H+:20](CC[N+]1(CCCCC1)C)c2ccccc2,O,0,0,3.42,['3.42'],['hunt_et_al']
CCC[N@@H+:18](CC[N+]1(CCCCC1)C)c2ccccc2,O,0,0,2.82,['2.82'],['hunt_et_al']
CSc1ccccc1[NH3+:8],O,0,0,3.45,['3.45'],['hunt_et_al']
CSc1ccc(c(c1)N(=O)=O)[NH3+:8],O,0,0,-0.28,['-0.28'],['hunt_et_al']
CSc1ccc(cc1N(=O)=O)[NH3+:8],O,0,0,2.47,['2.47'],['hunt_et_al']
c1ccc(cc1)c2ccc(c(c2)N(=O)=O)[NH3+:13],O,0,0,-0.76,['-0.76'],['hunt_et_al']
c1c(cc(cc1[NH3+:8])N(=O)=O)C(F)(F)F,O,0,0,0.82,['0.82'],['hunt_et_al']
c1cc(c(cc1[NH3+:8])C(F)(F)F)N(=O)=O,O,0,0,-0.05,['-0.05'],['hunt_et_al']
Cc1cc(c(c(c1)C)[NH+:12](C)C)C,O,0,0,4.84,['4.84'],['hunt_et_al']
C=C(c1ccccc1)c2ccc(cc2)[NH3+:15],O,0,0,4.18,['4.18'],['hunt_et_al']
c1ccc(cc1)Sc2ccccc2[NH3+:13],O,0,0,2.5,['2.5'],['hunt_et_al']
c1cc(cc(c1)OC(C(F)F)(F)F)[NH3+:9],O,0,0,3.38,['3.38'],['hunt_et_al']
c1cc(ccc1[NH3+:9])OC(C(F)F)(F)F,O,0,0,3.98,['3.98'],['hunt_et_al']
c1cc(cc(c1)SC(C(F)F)(F)F)[NH3+:9],O,0,0,3.39,['3.39'],['hunt_et_al']
c1cc(ccc1[NH3+:9])SC(C(F)F)(F)F,O,0,0,2.87,['2.87'],['hunt_et_al']
Cc1cc(c(c(c1)C)[NH2+:11]C)C,O,0,0,5.47,['5.47'],['hunt_et_al']
c1c(c(cc(c1Cl)Cl)Cl)[NH3+:7],O,0,0,1.09,['1.09'],['hunt_et_al']
c1c(cc(c(c1Cl)[NH3+:7])Cl)Cl,O,0,0,-0.03,['-0.03'],['hunt_et_al']
c1cc(cc(c1)OC(F)(F)F)[NH3+:8],O,0,0,3.25,['3.25'],['hunt_et_al']
c1ccc(c(c1)[NH3+:8])OC(F)(F)F,O,0,0,2.44,['2.44'],['hunt_et_al']
c1cc(ccc1[NH3+:8])OC(F)(F)F,O,0,0,3.82,['3.82'],['hunt_et_al']
c1cc(cc(c1)S(=O)(=O)C(F)(F)F)[NH3+:8],O,0,0,1.79,['1.79'],['hunt_et_al']
c1cc(cc(c1)SC(F)(F)F)[NH3+:8],O,0,0,3.3,['3.3'],['hunt_et_al']
c1cc(ccc1[NH3+:8])SC(F)(F)F,O,0,0,2.78,['2.78'],['hunt_et_al']
Cc1ccc(c(c1)C)[NH2+:10]C,O,0,0,4.56,['4.56'],['hunt_et_al']
c1ccc(cc1)OC2=C(C(=O)C(=C(C2=O)O)Oc3ccccc3)[OH:21],O,0,0,2,['2.0'],['hunt_et_al']
c1ccc(cc1)OC2=C(C(=O)C(=C(C2=O)[O-])Oc3ccccc3)[OH:21],O,0,0,3,['3.0'],['hunt_et_al']
C[C@@]12CC[C@H]3c4ccc(cc4CC[C@@H]3[C@@H]1CCC2=O)[OH:20],O,0,0,10.91,['10.91'],['hunt_et_al']
CC(C)(C)c1cc(c(c(c1)C(C)(C)C)[OH:19])C(C)(C)C,O,0,0,12.19,['12.19'],['hunt_et_al']
c1ccc2cc(ccc2c1)OP(=O)([OH:22])Oc3ccc4ccccc4c3,O,0,0,0.74,['0.74'],['hunt_et_al']
CC(=O)Oc1cccc(c1)C(=O)[OH:12],O,0,0,4,['4.0'],['hunt_et_al']
CC(=O)c1ccccc1C(=O)[OH:12],O,0,0,4.13,['4.13'],['hunt_et_al']
CC(=O)c1cccc(c1)C(=O)[OH:12],O,0,0,3.83,['3.83'],['hunt_et_al']
CC(=O)c1ccc(cc1)C(=O)[OH:12],O,0,0,3.7,['3.7'],['hunt_et_al']
C[C@H](CC=C)C(=O)[OH:8],O,0,0,4.72,['4.72'],['hunt_et_al']
c1ccc(cc1)c2ccc(cc2)[NH3+:13],O,0,0,4.27,['4.27'],['hunt_et_al']
CC[C@H](C(=O)OC)[NH3+:6],O,0,0,7.64,['7.64'],['hunt_et_al']
c1ccnc(c1)CC[NH3+:9],O,0,0,9.78,['9.78'],['hunt_et_al']
Cc1ccc(cn1)C[NH3+:9],O,0,0,8.7,['8.7'],['hunt_et_al']
Cc1ccc([nH+:7]c1)N,O,0,0,7.22,['7.22'],['hunt_et_al']
Cc1cccc([nH+:7]1)N,O,0,0,7.41,['7.41'],['hunt_et_al']
c1cc(ccc1CC(=O)[OH:11])N,O,0,0,3.6,['3.6'],['hunt_et_al']
c1cc(ccc1CC(=O)O)[NH3+:9],O,0,0,5.26,['5.26'],['hunt_et_al']
c1cc(ccc1CC(=O)[O-])[NH3+:9],O,0,0,5.26,['5.26'],['hunt_et_al']
c1cc(ccc1CC(=O)[OH:11])[NH3+],O,0,0,3.6,['3.6'],['hunt_et_al']
C1CCC[NH2+:8]CCC1,O,0,0,11.1,['11.1'],['hunt_et_al']
C/C=C/C(=O)[OH:6],O,0,0,4.44,['4.44'],['hunt_et_al']
CCCC[P@@H](=O)[OH:6],O,0,0,3.41,['3.41'],['hunt_et_al']
CC[C@@H](C(=O)[OH:6])Cl,O,0,0,2.86,['2.86'],['hunt_et_al']
C[C@H](CC(=O)[OH:6])Cl,O,0,0,4.05,['4.05'],['hunt_et_al']
C(CC(=O)[OH:6])CCl,O,0,0,4.5,['4.5'],['hunt_et_al']
C/C=C(/C(=O)[OH:6])\Cl,O,0,0,2.8,['2.8'],['hunt_et_al']
C([C@H](C(=O)[OH:5])O)Cl,O,0,0,3.12,['3.12'],['hunt_et_al']
C[C@@H](C(=O)[OH:11])Oc1ccc(cc1)Cl,O,0,0,3.26,['3.26'],['hunt_et_al']
Cc1c(cccc1Cl)[NH3+:8],O,0,0,2.49,['2.49'],['hunt_et_al']
Cc1ccc(cc1[NH3+:8])Cl,O,0,0,3.85,['3.85'],['hunt_et_al']
Cc1cccc(c1[NH3+:8])Cl,O,0,0,3.62,['3.62'],['hunt_et_al']
C(C(=O)[OH:4])(Br)Br,O,0,0,1.39,['1.39'],['hunt_et_al']
CC(C(=O)[OH:5])(Br)Br,O,0,0,1.48,['1.48'],['hunt_et_al']