Solute SMILES,Solvent SMILES,Solute CAS,Solute IUPAC,pKa (avg),pKa (all),Source (all)
FC1=C(F)C(=C(C2C3=C(C=CC=C3)C4=C2C=CC=C4)C(=C1F)F)F,CC#N,73482-93-6,"9-(2,3,4,5,6-pentafluorophenyl)-9H-fluorene",28.125,"[28.11, 28.14]","['MeCN_Acids_COSMO-RS_2008_Table.pdf', 'Ejoc202001649-sup-00001-misc_information.pdf']"
FC1=C(F)C(=C(C2C3=C(C=CC=C3)C4=C2C=CC=C4)C(=C1F)F)F,CS(=O)C,73482-93-6,"9-(2,3,4,5,6-pentafluorophenyl)-9H-fluorene",14.8,[14.8],['Ejoc202001649-sup-00001-misc_information.pdf']
FC1=C(F)C(=C(F)C(=C1)F)C(C#N)C#N,C(CCl)Cl,55810-63-4,"2-(2,3,5,6-tetrafluorophenyl)propanedinitrile",47.5,[47.5],['Ejoc202001649-sup-00001-misc_information.pdf']
FC1=C(F)C(=C(F)C(=C1)F)C(C#N)C#N,CC#N,55810-63-4,"2-(2,3,5,6-tetrafluorophenyl)propanedinitrile",12.98,"[12.98, 12.98]","['MeCN_Acids_COSMO-RS_2008_Table.pdf', 'Ejoc202001649-sup-00001-misc_information.pdf']"
FC1=C(F)C(=C(F)C(=C1)F)C(C#N)C2=C(F)C(=C(F)C(=C2F)F)F,C(CCl)Cl,42254-09-1,"2-(2,3,4,5,6-pentafluorophenyl)-2-(2,3,5,6-tetrafluorophenyl)acetonitrile",55.7,[55.7],['Ejoc202001649-sup-00001-misc_information.pdf']
FC1=C(F)C(=C(F)C(=C1)F)C(C#N)C2=C(F)C(=C(F)C(=C2F)F)F,CC#N,42254-09-1,"2-(2,3,4,5,6-pentafluorophenyl)-2-(2,3,5,6-tetrafluorophenyl)acetonitrile",21.105,"[21.11, 21.1]","['MeCN_Acids_COSMO-RS_2008_Table.pdf', 'Ejoc202001649-sup-00001-misc_information.pdf']"
FC1=C(F)C(=C(F)C(=C1C(C#N)C2=C(F)C(=C(C(=C2F)F)C(F)(F)F)F)F)C(F)(F)F,CC#N,58432-55-6,"2,2-bis[2,3,5,6-tetrafluoro-4-(trifluoromethyl)phenyl]acetonitrile",16.125,"[16.13, 16.12]","['MeCN_Acids_COSMO-RS_2008_Table.pdf', 'Ejoc202001649-sup-00001-misc_information.pdf']"
FC1=C(F)C(=C(F)C(=C1C(C#N)C2=C(F)C(=C(C(=C2F)F)C(F)(F)F)F)F)C(F)(F)F,CS(=O)C,58432-55-6,"2,2-bis[2,3,5,6-tetrafluoro-4-(trifluoromethyl)phenyl]acetonitrile",3.3,[3.3],['Ejoc202001649-sup-00001-misc_information.pdf']
FC1=C(F)C(=C(F)C(=C1C(C#N)C2=C(F)C(=C(C(=C2F)F)C(F)(F)F)F)F)C(F)(F)F,O,58436-28-5,"2,2-bis[2,3,5,6-tetrafluoro-4-(trifluoromethyl)phenyl]acetonitrile",4.4,[4.4],['Ejoc202001649-sup-00001-misc_information.pdf']
FC1=C(F)C(=C(F)C(=N1)F)C(C#N)C2=C(F)C3=C(F)C(=C(F)C(=C3C(=C2F)F)F)F,CC#N,62325-37-5,"2-(1,3,4,5,6,7,8-heptafluoronaphthalen-2-yl)-2-(2,3,5,6-tetrafluoropyridin-4-yl)acetonitrile",16.015,"[16.02, 16.01]","['MeCN_Acids_COSMO-RS_2008_Table.pdf', 'Ejoc202001649-sup-00001-misc_information.pdf']"
FC1=CC=C(C=C1)C(=O)N[S](=O)(=O)C(F)(F)F,CC#N,39063-00-8,4-fluoro-N-(trifluoromethylsulfonyl)benzamide,10.65,"[10.65, 10.65]","['MeCN_Acids_COSMO-RS_2008_Table.pdf', 'Ejoc202001649-sup-00001-misc_information.pdf']"
FC1=CC=C(C=C1)C(N[S](=O)(=O)C(F)(F)F)=N[S](=O)(=O)C(F)(F)F,CC#N,500721-93-7,"4-fluoro-N,N'-bis((trifluoromethyl)sulfonyl)benzimidamide",5.38,"[5.66, 5.33, 5.29, 5.29, 5.33]","['MeCN_Acids_COSMO-RS_2008_Table.pdf', 'DCE_2011_pKa_Table_MeCN.pdf', 'pKa_values_of_acids_in_acetonitrile.pdf', 'Ejoc202001649-sup-00001-misc_information.pdf', 'leito_acids']"
FC1=CC=C(C=C1)C2=CC3CCCCC3C4=C2O[P](=O)(N[S](=O)(=O)C(F)(F)F)OC5=C(C=C6CCCCC6=C45)C7=CC=C(F)C=C7,CC#N,1431711-91-9,-,6.26,"[6.22, 6.3]","['Ejoc202001649-sup-00001-misc_information.pdf', 'leito_acids']"
FC1=NC(=C(F)C(=C1F)C(C#N)C2=C(F)C(=C(F)C(=C2F)F)F)F,C(CCl)Cl,62325-51-3,"2-(2,3,4,5,6-pentafluorophenyl)-2-(2,3,5,6-tetrafluoropyridin-4-yl)acetonitrile",50.5,[50.5],['Ejoc202001649-sup-00001-misc_information.pdf']
FC1=NC(=C(F)C(=C1F)C(C#N)C2=C(F)C(=C(F)C(=C2F)F)F)F,CC#N,62325-51-3,"2-(2,3,4,5,6-pentafluorophenyl)-2-(2,3,5,6-tetrafluoropyridin-4-yl)acetonitrile",16.395,"[16.4, 16.39]","['MeCN_Acids_COSMO-RS_2008_Table.pdf', 'Ejoc202001649-sup-00001-misc_information.pdf']"
I,C(CCl)Cl,10034-85-2,iodane,37.7,"[37.7, 37.7, 37.7]","['pKa_values_of_acids_and_bases_in_MeCN_DCE_DMSO_H2O_THF_C7_DME.pdf', 'Ejoc202001649-sup-00001-misc_information.pdf', 'leito_acids']"
I,CC#N,10034-85-2,iodane,2.8,"[2.8, 2.8, 2.8, 2.8, 2.8, 2.8]","['pKa_values_of_acids_and_bases_in_MeCN_DCE_DMSO_H2O_THF_C7_DME.pdf', 'DCE_2011_pKa_Table_MeCN.pdf', 'a_unified_view_to_bronsted_acidity_scales.pdf', 'pKa_values_of_acids_in_acetonitrile.pdf', 'Ejoc202001649-sup-00001-misc_information.pdf', 'leito_acids']"
I,CS(=O)C,10034-85-2,iodane,-10.9,"[-10.9, -10.9]","['pKa_values_of_acids_and_bases_in_MeCN_DCE_DMSO_H2O_THF_C7_DME.pdf', 'Ejoc202001649-sup-00001-misc_information.pdf']"
I,O,10034-85-2,iodane,-9.5,"[-9.5, -9.5]","['pKa_values_of_acids_and_bases_in_MeCN_DCE_DMSO_H2O_THF_C7_DME.pdf', 'Ejoc202001649-sup-00001-misc_information.pdf']"
N#CC(CC(C#N)=C(C#N)C#N)=C(C#N)C#N,C(CCl)Cl,1261286-78-5,,33.5,[33.5],['leito_acids']
N#CC1=C(C#N)C(=CC1)C#N,CC#N,-,"cyclopenta-1,3-diene-1,2,3-tricarbonitrile",1.44,[1.44],['MeCN_Acids_COSMO-RS_2008_Table.pdf']
N#CC1=C(C=CC1)C#N,CC#N,-,"cyclopenta-1,3-diene-1,2-dicarbonitrile",10.17,[10.17],['MeCN_Acids_COSMO-RS_2008_Table.pdf']
N#CC1C=C(C#N)C(=C1)C#N,C(CCl)Cl,215395-09-8,"cyclopenta-2,5-diene-1,2,4-tricarbonitrile",38,"[38.0, 38.0]","['Ejoc202001649-sup-00001-misc_information.pdf', 'leito_acids']"
N#CC1C=C(C#N)C(=C1)C#N,CC#N,215395-09-8,"cyclopenta-2,5-diene-1,2,4-tricarbonitrile",3.75,"[4.16, 3.68, 3.68, 3.65, 3.65, 3.68]","['MeCN_Acids_COSMO-RS_2008_Table.pdf', 'DCE_2011_pKa_Table_MeCN.pdf', 'a_unified_view_to_bronsted_acidity_scales.pdf', 'pKa_values_of_acids_in_acetonitrile.pdf', 'Ejoc202001649-sup-00001-misc_information.pdf', 'leito_acids']"
NC1=C(C=C(C=C1[S](F)(=O)=O)[S](F)(=O)=O)[S](F)(=O)=O,CC#N,133213-11-3,"2-aminobenzene-1,3,5-trisulfonyl fluoride",19.66,"[19.66, 19.66, 19.66]","['MeCN_Acids_COSMO-RS_2008_Table.pdf', 'Ejoc202001649-sup-00001-misc_information.pdf', 'leito_acids']"
NC1=C(C=C(C=C1[S](F)(=O)=O)[S](F)(=O)=O)[S](F)(=O)=O,CS(=O)C,133213-11-3,"2-aminobenzene-1,3,5-trisulfonyl fluoride",7.8,[7.8],['Ejoc202001649-sup-00001-misc_information.pdf']
O[P]1(=O)OC2=C(C=C3C=CC=CC3=C2C4=C(O1)C(=CC5=CC=CC=C45)C6=CC=C(F)C=C6)C7CC=C(F)C=C7,CC#N,915038-14-1,-,12.48,"[12.46, 12.5]","['Ejoc202001649-sup-00001-misc_information.pdf', 'leito_acids']"
OC(C#N)=C(C#N)C#N,C(CCl)Cl,27062-39-1,"2-hydroxyethene-1,1,2-tricarbonitrile",35.9,[35.9],['pKa_values_of_acids_and_bases_in_MeCN_DCE_DMSO_H2O_THF_C7_DME.pdf']
OC(C#N)=C(C#N)C#N,CC#N,27062-39-1,"2-hydroxyethene-1,1,2-tricarbonitrile",4.54,"[4.69, 4.39]","['pKa_values_of_acids_and_bases_in_MeCN_DCE_DMSO_H2O_THF_C7_DME.pdf', 'a_unified_view_to_bronsted_acidity_scales.pdf']"
OC1=C(C=C(C=C1[S](=O)(=O)C(F)(F)F)[S](=O)(=O)C(F)(F)F)[S](=O)(=O)C(F)(F)F,C(CCl)Cl,71571-37-4,"2,4,6-tris((trifluoromethyl)sulfonyl)phenol",38.4,[38.4],['Ejoc202001649-sup-00001-misc_information.pdf']
OC1=C(C=C(C=C1[S](=O)(=O)C(F)(F)F)[S](=O)(=O)C(F)(F)F)[S](=O)(=O)C(F)(F)F,CC#N,71571-37-4,"2,4,6-tris((trifluoromethyl)sulfonyl)phenol",4.62,"[4.8, 4.44]","['MeCN_Acids_COSMO-RS_2008_Table.pdf', 'Ejoc202001649-sup-00001-misc_information.pdf']"
OC1=C(C=C(C=C1[S](=O)(=O)C(F)(F)F)[S](=O)(=O)C(F)(F)F)[S](=O)(=O)C(F)(F)F,O,71571-37-4,"2,4,6-tris((trifluoromethyl)sulfonyl)phenol",-2,[-2.0],['Ejoc202001649-sup-00001-misc_information.pdf']
OC1=C(C=C(C=C1[S](=O)(=O)OCC(F)(F)CF)[S](=O)(=O)OCC(F)(F)CF)[S](=O)(=O)OCC(F)(F)CF,CC#N,1263293-54-4,,8.155,"[8.14, 8.17]","['Ejoc202001649-sup-00001-misc_information.pdf', 'leito_acids']"
OC1=C(C=C(C=C1[S](=O)(=O)OCC(F)(F)F)[S](=O)(=O)OCC(F)(F)F)[S](=O)(=O)OCC(F)(F)F,CC#N,1263293-53-3,-,7.955,"[7.94, 7.97]","['Ejoc202001649-sup-00001-misc_information.pdf', 'leito_acids']"
OC1=C(C=C(C=C1[S](F)(=O)=O)[S](F)(=O)=O)[S](F)(=O)=O,C(CCl)Cl,882492-01-5,"2-hydroxybenzene-1,3,5-trisulfonyl fluoride",39,[39.0],['Ejoc202001649-sup-00001-misc_information.pdf']
OC1=C(C=C(C=C1[S](F)(=O)=O)[S](F)(=O)=O)[S](F)(=O)=O,CC#N,882492-01-5,"2-hydroxybenzene-1,3,5-trisulfonyl fluoride",5.375,"[5.53, 5.22]","['MeCN_Acids_COSMO-RS_2008_Table.pdf', 'Ejoc202001649-sup-00001-misc_information.pdf']"
OCl(=O)(=O)=O,C(CCl)Cl,7601-90-3,perchloric acid,32.2,"[32.2, 32.2]","['pKa_values_of_acids_and_bases_in_MeCN_DCE_DMSO_H2O_THF_C7_DME.pdf', 'leito_acids']"
OCl(=O)(=O)=O,C1CCOC1,7601-90-3,perchloric acid,7.57,[7.57],['pKa_values_of_acids_and_bases_in_MeCN_DCE_DMSO_H2O_THF_C7_DME.pdf']
OCl(=O)(=O)=O,CC#N,7601-90-3,perchloric acid,1.7,"[1.57, 1.83]","['MeCN_Acids_COSMO-RS_2008_Table.pdf', 'pKa_values_of_acids_and_bases_in_MeCN_DCE_DMSO_H2O_THF_C7_DME.pdf']"
OCl(=O)(=O)=O,CS(=O)C,7601-90-3,perchloric acid,-14.9,[-14.9],['pKa_values_of_acids_and_bases_in_MeCN_DCE_DMSO_H2O_THF_C7_DME.pdf']
OCl(=O)(=O)=O,O,7601-90-3,perchloric acid,-15.2,[-15.2],['pKa_values_of_acids_and_bases_in_MeCN_DCE_DMSO_H2O_THF_C7_DME.pdf']
OS(=O)(=O)F,C(CCl)Cl,7789-21-1,sulfurofluoridic acid,34.7,[34.7],['leito_acids']
OS(=O)(=O)F,CC#N,7789-21-1,sulfurofluoridic acid,3.38,[3.38],['MeCN_Acids_COSMO-RS_2008_Table.pdf']
OS(=O)(=O)O,C(CCl)Cl,7664-93-9,sulfuric acid,42.8,"[42.8, 42.8]","['Ejoc202001649-sup-00001-misc_information.pdf', 'leito_acids']"
OS(=O)(=O)O,CC#N,7664-93-9,sulfuric acid,7.466666667,"[7.2, 7.6, 7.6]","['MeCN_Acids_COSMO-RS_2008_Table.pdf', 'pKa_values_of_acids_in_acetonitrile.pdf', 'Ejoc202001649-sup-00001-misc_information.pdf']"
CCCC(=O)Nc1ccc(c(c1)C(=O)C)OC[C@@H](C[NH2+:20]C(C)C)O,O,0,0,9.5,['9.5'],['hunt_et_al']
c1nc2c(n1COCCO)[nH]c(nc2=O)[NH3+:13],O,0,0,2.2,['2.2'],['hunt_et_al']
CCC(=O)O[C@@]1(CC[N@@H+:17](C[C@@H]1C)C)c2ccccc2,O,0,0,8.7,['8.7'],['hunt_et_al']
CC(C)[NH2+:16]C[C@H](COc1ccccc1CC=C)O,O,0,0,9.6,['9.6'],['hunt_et_al']
CC(C)[NH2+:16]C[C@H](COc1ccc(cc1)CC(=O)N)O,O,0,0,9.6,['9.6'],['hunt_et_al']
CCOC(=O)c1ccc(cc1)[NH3+:10],O,0,0,2.5,['2.5'],['hunt_et_al']
C[NH2+:10]CCc1ccccn1,O,0,0,10,['10.0'],['hunt_et_al']
C[NH2+]CCc1cccc[nH+:9]1,O,0,0,3.9,['3.9'],['hunt_et_al']
CC1=C(N2[C@@H]([C@@H](C2=O)NC(=O)[C@@H](c3ccc(cc3)O)[NH3+:18])SC1)C(=O)[O-],O,0,0,7,['7.0'],['hunt_et_al']
CC[NH+:21](CC)CCC[C@H](C)Nc1ccnc2c1ccc(c2)Cl,O,0,0,10.6,['10.6'],['hunt_et_al']
Cc1c(nc[nH]1)CSCCN/C(=[NH+:13]/C)/NC#N,O,0,0,6.8,['6.8'],['hunt_et_al']
C[NH+:21](C)CCCN1c2ccccc2CCc3c1cc(cc3)Cl,O,0,0,9.4,['9.4'],['hunt_et_al']
c1ccc(cc1)C(c2ccccc2)(c3ccccc3Cl)n4cc[nH+:23]c4,O,0,0,5.8,['5.8'],['hunt_et_al']
CN1CCN(CC1)C2=c3ccccc3=[NH+:19]c4ccc(cc4N2)Cl,O,0,0,7.5,['7.5'],['hunt_et_al']
C[NH+:22]1CCN(CC1)C2=c3ccccc3=[NH+]c4ccc(cc4N2)Cl,O,0,0,3.9,['3.9'],['hunt_et_al']
C[N@H+:19]1CC[C@]23c4c5ccc(c4O[C@H]2[C@H](C=C[C@H]3[C@H]1C5)O)OC,O,0,0,8.1,['8.1'],['hunt_et_al']
C[NH2+:20]CCCN1c2ccccc2CCc3c1cccc3,O,0,0,10.3,['10.3'],['hunt_et_al']
C1CCC[NH+](CCC1)CCN=C([NH2:13])N,O,0,0,11.4,['11.4'],['hunt_et_al']
c1c(nc[nH]1)CC[NH3+:8],O,0,0,9.7,['9.7'],['hunt_et_al']
CC[C@H]1C[N@@H+:22]2CC[C@H]1C[C@H]2[C@@H](c3ccnc4c3cc(cc4)OC)O,O,0,0,9.1,['9.1'],['hunt_et_al']
CC[C@H]1C[N@@H+]2CC[C@H]1C[C@H]2[C@@H](c3cc[nH+:21]c4c3cc(cc4)OC)O,O,0,0,4.1,['4.1'],['hunt_et_al']
C[NH+:21](C)CCCN1c2ccccc2CCc3c1cccc3,O,0,0,9.6,['9.6'],['hunt_et_al']
C[C@@H](CCc1ccccc1)NC[C@@H](c2ccc(c(c2)C(=O)N)[OH:23])O,O,0,0,7.3,['7.3'],['hunt_et_al']
CC[NH+:16](CC)CC(=O)Nc1c(cccc1C)C,O,0,0,7.9,['7.9'],['hunt_et_al']
C[NH2+:21]CCCC12CCC(c3c1cccc3)c4c2cccc4,O,0,0,10.3,['10.3'],['hunt_et_al']
C[NH+:6](CCCl)CCCl,O,0,0,6.4,['6.4'],['hunt_et_al']
CC(C)NC[C@@H](c1cc(cc(c1)O)[OH:13])O,O,0,0,9.9,['9.9'],['hunt_et_al']
CC(C)[NH2+:16]C[C@H](COc1ccc(cc1)CCOC)O,O,0,0,9.6,['9.6'],['hunt_et_al']
c1cc(c(cc1Cl)Cl)CO[C@H](Cn2cc[nH+:19]c2)c3ccc(cc3Cl)Cl,O,0,0,6.4,['6.4'],['hunt_et_al']
C[N@H+:18]1CC[C@]23c4c5ccc(c4O[C@H]2[C@H](C=C[C@H]3[C@H]1C5)O)O,O,0,0,8.2,['8.2'],['hunt_et_al']
CC[NH+:25](CC)CCOC(=O)[C@@H](Cc1cccc2c1cccc2)C[C@@H]3CCCO3,O,0,0,9.1,['9.1'],['hunt_et_al']
C[N@H+:18]1CCO[C@H](c2ccccc2C1)c3ccccc3,O,0,0,8.5,['8.5'],['hunt_et_al']
c1cc(c[nH+:7]c1)C(=O)O,O,0,0,4.8,['4.8'],['hunt_et_al']
C[N@@H+:12]1CCC[C@H]1c2cccnc2,O,0,0,8.1,['8.1'],['hunt_et_al']
C[N@@H+]1CCC[C@H]1c2ccc[nH+:11]c2,O,0,0,3.2,['3.2'],['hunt_et_al']
CCN(CC)C(=O)c1ccc[nH+:11]c1,O,0,0,3.5,['3.5'],['hunt_et_al']
COc1ccc(cc1OC)Cc2c3cc(c(cc3cc[nH+:21]2)OC)OC,O,0,0,6.4,['6.4'],['hunt_et_al']
C[C@H](Cc1ccc(cc1)Cl)[NH3+:10],O,0,0,9.9,['9.9'],['hunt_et_al']
CCOc1ccc(cc1)N/C(=[NH+:19]/c2ccc(cc2)OCC)/C,O,0,0,9.3,['9.3'],['hunt_et_al']
c1ccc(cc1)C[C@H](C(=O)[O-])[NH3+:10],O,0,0,8.9,['8.9'],['hunt_et_al']
C[N@]1C(=C(c2ccccc2S1(=O)=O)O)C(=O)Nc3cccc[nH+:16]3,O,0,0,5.3,['5.3'],['hunt_et_al']
COc1cc2c(cc1OC)[nH+:20]c(nc2N)N3CCN(CC3)C(=O)c4ccco4,O,0,0,7,['7.0'],['hunt_et_al']
CC[NH+:15](CC)CCOC(=O)c1ccc(cc1)N,O,0,0,9.1,['9.1'],['hunt_et_al']
CC[NH+](CC)CCOC(=O)c1ccc(cc1)[NH3+:14],O,0,0,2,['2.0'],['hunt_et_al']
CC(C)[NH2+:17]C[C@H](COc1cccc2c1cccc2)O,O,0,0,9.6,['9.6'],['hunt_et_al']
COc1ccc2c(c1)c(ccn2)[C@H]([C@@H]3C[C@H]4CC[N@@H+:22]3C[C@@H]4C=C)O,O,0,0,8.5,['8.5'],['hunt_et_al']
CC(C)[NH2+:14]C[C@@H](c1ccc(cc1)[N-]S(=O)(=O)C)O,O,0,0,9.3,['9.3'],['hunt_et_al']
C1CC[N@@H+:17]2C[C@@H]3C[C@H]([C@H]2C1)C[N@@]4[C@H]3CCCC4,O,0,0,12,['12.0'],['hunt_et_al']
CCCCNc1ccc(cc1)C(=O)OCC[NH+:17](C)C,O,0,0,8.5,['8.5'],['hunt_et_al']
C[NH+:17](C)CC[N@@](Cc1ccsc1)c2ccccn2,O,0,0,8.9,['8.9'],['hunt_et_al']
c1ccn2c(c1)nn(c2=O)CCC[NH+:24]3CCN(CC3)c4cccc(c4)Cl,O,0,0,6.8,['6.8'],['hunt_et_al']
C[C@@H](CN1c2ccccc2CCc3c1cccc3)C[NH+:22](C)C,O,0,0,9.4,['9.4'],['hunt_et_al']
c1ccc2c(c1)c(c[nH]2)C[C@H](C(=O)[O-])[NH3+:13],O,0,0,9.1,['9.1'],['hunt_et_al']
CC(C(F)(F)F)(C(F)(F)F)[OH:5],O,0,0,9.6,['9.6'],['hunt_et_al']
CC(C)(C(F)(F)F)[OH:5],O,0,0,11.6,['11.6'],['hunt_et_al']
C[C@H](C(F)(F)F)[OH:4],O,0,0,11.8,['11.8'],['hunt_et_al']
C(C[SH:9])NC(=O)NCCS,O,0,0,9.26,['9.26'],['hunt_et_al']
C(CCS)C[SH:5],O,0,0,9.88,['9.88'],['hunt_et_al']
C(C(F)(F)F)[SH:6],O,0,0,7.3,['7.3'],['hunt_et_al']
C(C(F)(F)F)[OH:3],O,0,0,12.8,['12.8'],['hunt_et_al']
C[C@@H](C(=O)[OH:11])Oc1cc(c(cc1Cl)Cl)Cl,O,0,0,2.84,['2.84'],['hunt_et_al']
C(C(Cl)Cl)[OH:3],O,0,0,12.89,['12.89'],['hunt_et_al']
c1c(c(c(c(c1Cl)Cl)Cl)Cl)[OH:7],O,0,0,6.35,['6.35'],['hunt_et_al']
c1c(c(c(c(c1Cl)Cl)Cl)[OH:7])Cl,O,0,0,5.22,['5.22'],['hunt_et_al']
c1c(c(c(c(c1Cl)Cl)[OH:7])Cl)Cl,O,0,0,5.14,['5.14'],['hunt_et_al']
c1cc(c(c(c1Cl)CC(=O)[OH:10])Cl)Cl,O,0,0,3.7,['3.7'],['hunt_et_al']
Cc1cc(c(c(c1)[OH:10])C)C,O,0,0,10.7,['10.7'],['hunt_et_al']
c1cc(c(c(c1Cl)[OH:7])Cl)Cl,O,0,0,5.8,['5.8'],['hunt_et_al']
c1cc(c(cc1Cl)Cl)OCCCC(=O)[OH:12],O,0,0,4.1,['4.1'],['hunt_et_al']
C(C[SH:4])N,O,0,0,8.3,['8.3'],['hunt_et_al']
C(C[SH:4])[NH3+],O,0,0,8.3,['8.3'],['hunt_et_al']
c1ccc(c(c1)N)[SH:8],O,0,0,6.59,['6.59'],['hunt_et_al']
C(CCl)[OH:3],O,0,0,14.31,['14.31'],['hunt_et_al']
c1ccc(c(c1)C#N)[OH:9],O,0,0,6.98,['6.98'],['hunt_et_al']
c1c(cc(c(c1C2CCCCC2)[OH:19])N(=O)=O)N(=O)=O,O,0,0,4.52,['4.52'],['hunt_et_al']
CCOCC[SH:6],O,0,0,9.38,['9.38'],['hunt_et_al']
c1c(cc(c(c1C(=O)[OH:16])O)N(=O)=O)N(=O)=O,O,0,0,0.7,['0.7'],['hunt_et_al']
CC(C)c1ccccc1[OH:10],O,0,0,10.47,['10.47'],['hunt_et_al']
CC(C)(CO)[SH:6],O,0,0,9.85,['9.85'],['hunt_et_al']
C(CS(=O)(=O)O)[SH:6],O,0,0,9.2,['9.2'],['hunt_et_al']
C(CS(=O)(=O)[O-])[SH:6],O,0,0,9.2,['9.2'],['hunt_et_al']
c1c(c(=O)[nH]c(=O)[nH]1)[SH:9],O,0,0,5.3,['5.3'],['hunt_et_al']
c1c(c(=O)[n-]c(=O)[nH]1)[SH:9],O,0,0,5.3,['5.3'],['hunt_et_al']
CCC(C)(C)[SH:6],O,0,0,11.22,['11.22'],['hunt_et_al']
c1ccnc(c1)C[SH:8],O,0,0,8.82,['8.82'],['hunt_et_al']
CC(C)[SH:4],O,0,0,10.86,['10.86'],['hunt_et_al']
CC(C)c1cccc(c1)[OH:10],O,0,0,10.1,['10.1'],['hunt_et_al']
CC[C@](C)([C@@H](C(=O)O)N)[SH:10],O,0,0,8.1,['8.1'],['hunt_et_al']
CC[C@](C)([C@@H](C(=O)[O-])[NH3+])[SH:10],O,0,0,8.1,['8.1'],['hunt_et_al']
C([C@@H](C[SH:6])O)O,O,0,0,9.46,['9.46'],['hunt_et_al']
C(CO)C[SH:5],O,0,0,10.19,['10.19'],['hunt_et_al']
C(C[SH:6])C(=O)O,O,0,0,10.27,['10.27'],['hunt_et_al']
C(C[SH:6])C(=O)[O-],O,0,0,10.27,['10.27'],['hunt_et_al']
c1cc(cc(c1)[SH:10])N(=O)=O,O,0,0,5.24,['5.24'],['hunt_et_al']
c1ccc(cc1)C#CC[OH:10],O,0,0,13.87,['13.87'],['hunt_et_al']
c1cc(cc(c1)[SH:10])C(=O)O,O,0,0,6.2,['6.2'],['hunt_et_al']
c1cc(cc(c1)[SH:10])C(=O)[O-],O,0,0,6.2,['6.2'],['hunt_et_al']
C(C[SH:5])C#N,O,0,0,8.6,['8.6'],['hunt_et_al']
c1cc(ccc1OCC(=O)[OH:10])Cl,O,0,0,3.18,['3.18'],['hunt_et_al']
c1cc(ccc1[SH:7])Cl,O,0,0,7.7,['7.7'],['hunt_et_al']
CCOc1ccc(cc1)[OH:9],O,0,0,10.3,['10.3'],['hunt_et_al']
COc1ccc(cc1)[SH:9],O,0,0,6.77,['6.77'],['hunt_et_al']
Cc1ccc(cc1)[SH:8],O,0,0,6.82,['6.82'],['hunt_et_al']
CC[C@H](C)c1ccc(c(c1)N(=O)=O)[OH:14],O,0,0,7.59,['7.59'],['hunt_et_al']
C=CC[SH:4],O,0,0,9.96,['9.96'],['hunt_et_al']
Cn1c(c(cn1)c2nnn(n2)C)S(=O)(=O)[NH:23]C(=O)Nc3nc(cc(n3)OC)OC,O,0,0,3.6,['3.6'],['hunt_et_al']
c1cc2c(c(c1)Cl)n(c(=O)s2)CC(=O)[OH:13],O,0,0,3.04,['3.04'],['hunt_et_al']
c1ccc(cc1)C(=O)N[OH:10],O,0,0,8.88,['8.88'],['hunt_et_al']
c1ccc(cc1)C[OH:8],O,0,0,15.44,['15.44'],['hunt_et_al']
c1ccc(cc1)C[SH:8],O,0,0,9.43,['9.43'],['hunt_et_al']
C[C@@H](CC(=O)[OH:6])O,O,0,0,4.7,['4.7'],['hunt_et_al']
COc1cc(nc(n1)Oc2cccc(c2C(=O)[OH:25])Oc3nc(cc(n3)OC)OC)OC,O,0,0,3.55,['3.55'],['hunt_et_al']
c1cc(c(cc1N(=O)=O)N(=O)=O)O/N=C/c2cc(c(c(c2)Br)[OH:21])Br,O,0,0,5.46,['5.46'],['hunt_et_al']
CCCC(=O)O[OH:6],O,0,0,8.2,['8.2'],['hunt_et_al']
CCCCOC(=O)c1ccc(cc1)[OH:13],O,0,0,8.47,['8.47'],['hunt_et_al']
c1ccc(cc1)[C@H](c2ccc(cc2)Cl)N3CCN(CC3)CCOCC(=O)[OH:25],O,0,0,3,['3.0'],['hunt_et_al']
c1ccc(cc1)[C@H](c2ccc(cc2)Cl)N3CC[NH+:22](CC3)CCOCC(=O)O,O,0,0,7.95,['7.95'],['hunt_et_al']
c1ccc(cc1)[C@H](c2ccc(cc2)Cl)N3CC[NH+:22](CC3)CCOCC(=O)[O-],O,0,0,7.95,['7.95'],['hunt_et_al']
c1ccc(cc1)[C@H](c2ccc(cc2)Cl)N3CC[NH+](CC3)CCOCC(=O)[OH:25],O,0,0,3,['3.0'],['hunt_et_al']
[H]/N=C(/N)\SCCc1cccc(c1)CCSC(=[NH2+:13])N,O,0,0,11,['11.0'],['hunt_et_al']
CCCOC(c1ccccc1)(c2ccccc2)C(=O)OC3CC[NH+:24](CC3)C,O,0,0,6.65,['6.65'],['hunt_et_al']
CC[NH+:18](CC)CCNC(=O)c1ccc(cc1)NC(=O)C,O,0,0,9.14,['9.14'],['hunt_et_al']
CC(C)(C)NC(=O)[C@@H]1C[C@@H]2CCCC[C@@H]2C[N@H+:40]1C[C@H]([C@H](Cc3ccccc3)NC(=O)[C@H](CC(=O)N)NC(=O)c4ccc5ccccc5n4)O,O,0,0,7.14,['7.14'],['hunt_et_al']
CC[C@H](C)C(=O)O[C@H]1C[C@@H](C=C2[C@H]1[C@H]([C@H](C=C2)C)CC[C@H](C[C@H](CC(=O)[OH:26])O)O)O,O,0,0,4.7,['4.7'],['hunt_et_al']
COc1cc[nH+:21]c(c1)NC2CCN(CC2)C(=O)c3ccc(cc3)C#N,O,0,0,7.1,['7.1'],['hunt_et_al']
c1ccc(cc1)SCc2cccc[nH+:13]2,O,0,0,3.8,['3.8'],['hunt_et_al']
CC[NH+:14](CC)[C@H](C)C(=O)c1ccccc1,O,0,0,8.8,['8.8'],['hunt_et_al']
Cn1c(nnn1)SCC2=C(N3[C@@H]([C@@](C3=O)(NC(=O)CSCC#N)OC)SC2)C(=O)[OH:26],O,0,0,3.37,['3.37'],['hunt_et_al']
Cc1c(c(n(n1)c2ccccc2)NC(=O)[NH:23]S(=O)(=O)c3ccc(cc3)Cl)C#N,O,0,0,2.3,['2.3'],['hunt_et_al']
c1cc2c(c(c1)F)C(=[NH+:13][C@@H](N2)c3cccs3)N,O,0,0,8.73,['8.73'],['hunt_et_al']
Cc1cc([nH+:18]c(c1)N)CCNC(=O)c2ccc(cc2)C#N,O,0,0,7.1,['7.1'],['hunt_et_al']
CCOC(=O)N1CCC(CC1)Nc2cc(cc[nH+:14]2)Cl,O,0,0,5.3,['5.3'],['hunt_et_al']
CCOC(=O)N1CCC(CC1)[NH2+:16]c2cc(ccn2)Cl,O,0,0,5.3,['5.3'],['hunt_et_al']
C(CCCC(=O)[OH:12])CCCC(=O)O,O,0,0,3.49,['3.49'],['hunt_et_al']
c1ccc2c(c1)CCC[C@H]2C3=[NH+:14]CCN3,O,0,0,10.6,['10.6'],['hunt_et_al']
COc1ccc2c(c1)c(ccn2)[C@@H]([C@H]3C[C@@H]4CC[N@H+:22]3C[C@@H]4C=C)O,O,0,0,8.05,['8.05'],['hunt_et_al']
c1ccnc(c1)c2[nH+:18]c(c(c(n2)N)Cc3ccc(cc3Cl)Cl)N,O,0,0,5.58,['5.58'],['hunt_et_al']
CC(C)[NH2+:16]C[C@H](COc1ccc(cc1)CCOC)O,O,0,0,9.7,['9.7'],['hunt_et_al']
c1cc(c(c(c1)Cl)NC2=[NH+:10]CCN2)Cl,O,0,0,8.05,['8.05'],['hunt_et_al']
CCC(=O)N[C@@H](c1cccs1)c2cc(c3cccnc3c2[OH:21])Cl,O,0,0,8.19,['8.19'],['hunt_et_al']
CCC(=O)N[C@@H](c1cccs1)c2cc(c3ccc[nH+:18]c3c2O)Cl,O,0,0,2.5,['2.5'],['hunt_et_al']
CCC[C@@H]1C[C@H]([N@@H+:19](C1)C)C(=O)N[C@@H]([C@@H]2[C@@H]([C@@H]([C@H]([C@H](O2)SC)O)O)O)[C@@H](C)O,O,0,0,7.65,['7.65'],['hunt_et_al']
CC(=O)C[C@H](c1ccccc1)c2c(c3ccccc3oc2=O)[OH:23],O,0,0,5.1,['5.1'],['hunt_et_al']
CN(C)[C@@H]1CCc2c(ccc(c2O)[OH:14])C1,O,0,0,8.85,['8.85'],['hunt_et_al']
CN(C)[C@@H]1CCc2c(ccc(c2[OH:15])O)C1,O,0,0,8.85,['8.85'],['hunt_et_al']
C[NH+:13](C)[C@@H]1CCc2c(ccc(c2O)O)C1,O,0,0,10.5,['10.5'],['hunt_et_al']
C[NH+](C)[C@@H]1CCc2c(ccc(c2O)[OH:14])C1,O,0,0,8.85,['8.85'],['hunt_et_al']
C[NH+](C)[C@@H]1CCc2c(ccc(c2[OH:15])O)C1,O,0,0,8.85,['8.85'],['hunt_et_al']
CCCSc1ccc2c(c1)[nH]c(n2)[NH:15]C(=O)OC,O,0,0,10.5,['10.5'],['hunt_et_al']
CCCSc1ccc2c(c1)[nH]c([nH+:13]2)NC(=O)OC,O,0,0,5.88,['5.88'],['hunt_et_al']
CCCSc1ccc2c(c1)[nH]c([nH+:13]2)[N-]C(=O)OC,O,0,0,10.5,['10.5'],['hunt_et_al']
CCCSc1ccc2c(c1)[nH]c([nH+]2)[NH:15]C(=O)OC,O,0,0,5.88,['5.88'],['hunt_et_al']
CC1=C([C@@H](C(=C(N1)C)C(=O)OCC[N@@H+:29](C)Cc2ccccc2)c3cccc(c3)N(=O)=O)C(=O)OC,O,0,0,7.26,['7.26'],['hunt_et_al']
c1ccc(cc1)CSc2[nH]c3ccccc3[nH+:15]2,O,0,0,4.2,['4.2'],['hunt_et_al']