Solute SMILES,Solvent SMILES,Solute CAS,Solute IUPAC,pKa (avg),pKa (all),Source (all)
C[N@H+:18]1CCO[C@H](c2ccccc2C1)c3ccccc3,O,0,0,9.3,['9.3'],['hunt_et_al']
Cc1c(n2cccc(c2[nH+:19]1)OCc3ccccc3)CC#N,O,0,0,5.6,['5.6'],['hunt_et_al']
CCCNC(=O)[NH:12]S(=O)(=O)c1ccc(cc1)Cl,O,0,0,4.69,['4.69'],['hunt_et_al']
CC(C)[NH2+:16]C[C@H](COc1ccccc1OCC=C)O,O,0,0,9.69,['9.69'],['hunt_et_al']
c1cc(ccc1c2ccc(c(c2)C(=O)NCC34CC5CC(C3)CC(C5)C4)Cl)C(=O)[OH:29],O,0,0,4.1,['4.1'],['hunt_et_al']
C[C@@H](c1cccc(c1)C(=O)c2ccccc2)C(=O)[OH:19],O,0,0,3.96,['3.96'],['hunt_et_al']
CCOC(=O)C1(CC[NH+:16](CC1)C)c2ccccc2,O,0,0,10.5,['10.5'],['hunt_et_al']
CC[NH+:19](CC)CCOC(=O)C1(CCCC1)c2ccccc2,O,0,0,8.4,['8.4'],['hunt_et_al']
CCc1cccc2c1[nH]c3c2CCO[C@@]3(CC)CC(=O)[OH:21],O,0,0,4.15,['4.15'],['hunt_et_al']
C[NH+:18](C)C[C@@H](c1ccc(cc1)OC)C2(CCCCC2)O,O,0,0,9.64,['9.64'],['hunt_et_al']
C[N@@H+:18]1CC[C@@]23C=C[C@@H](C[C@@H]2Oc4c3c(ccc4OC)C1)O,O,0,0,8.21,['8.21'],['hunt_et_al']
c1ccc(cc1)CC2=[NH+:11]CCN2,O,0,0,10.7,['10.7'],['hunt_et_al']
C1CCC(CC1)[SH:7],O,0,0,10.69,['10.69'],['hunt_et_al']
CC(C(=O)[OH:5])(Cl)Cl,O,0,0,1.74,['1.74'],['hunt_et_al']
COc1c(ccc(c1C(=O)[OH:10])Cl)Cl,O,0,0,1.97,['1.97'],['hunt_et_al']
C[NH+:18](C)CCOC(c1ccccc1)c2ccccc2,O,0,0,9.1,['9.1'],['hunt_et_al']
CS(=O)(=O)[NH:16]C(=O)c1cc(ccc1N(=O)=O)Oc2ccc(cc2Cl)C(F)(F)F,O,0,0,2.83,['2.83'],['hunt_et_al']
CN(C)C(=O)c1ccc(cc1S(=O)(=O)[NH:22]C(=O)Nc2nc(cc(n2)OC)OC)NC=O,O,0,0,4.6,['4.6'],['hunt_et_al']
C(C[OH:5])C#N,O,0,0,14.03,['14.03'],['hunt_et_al']
CCn1cc(c(=O)c2c1c(c(c(c2)F)[N@@]3CC[NH2+:18][C@@H](C3)C)F)C(=O)[O-],O,0,0,8.87,['8.87'],['hunt_et_al']
CCn1cc(c(=O)c2c1c(c(c(c2)F)[N@@]3CC[NH2+][C@@H](C3)C)F)C(=O)[OH:23],O,0,0,5.82,['5.82'],['hunt_et_al']
Cc1cc(ccc1OCCCC(=O)[OH:13])Cl,O,0,0,4.5,['4.5'],['hunt_et_al']
CC1([C@@H](N2[C@H](S1)[C@@H](C2=O)NC(=O)c3c(cccc3OC)OC)C(=O)[OH:23])C,O,0,0,2.77,['2.77'],['hunt_et_al']
C[C@@H]1COc2c3n1cc(c(=O)c3cc(c2N4CC[NH+:21](CC4)C)F)C(=O)[O-],O,0,0,8.1,['8.1'],['hunt_et_al']
C[C@@H]1COc2c3n1cc(c(=O)c3cc(c2N4CC[NH+](CC4)C)F)C(=O)[OH:25],O,0,0,6.08,['6.08'],['hunt_et_al']
CC(=O)Nc1ccc(cc1)[OH:11],O,0,0,9.63,['9.63'],['hunt_et_al']
c1cc(ccc1C(=O)N[OH:10])Cl,O,0,0,9.59,['9.59'],['hunt_et_al']
Cc1cc(ccc1Cl)[OH:8],O,0,0,9.55,['9.55'],['hunt_et_al']
C[C@@H]1CCCC[N@@H+:17]1CCCOC(=O)c2ccc(c(c2)Cl)Cl,O,0,0,8.9,['8.9'],['hunt_et_al']
COc1ccc(cc1)C(=O)N[OH:11],O,0,0,9,['9.0'],['hunt_et_al']
c1cc(ccc1C(=O)N[OH:13])N(=O)=O,O,0,0,8.01,['8.01'],['hunt_et_al']
COC(=O)c1ccccc1S(=O)(=O)[NH:19]C(=O)Nc2nc(cc(n2)OC(F)F)OC(F)F,O,0,0,3.47,['3.47'],['hunt_et_al']
c1cc(c(c(c1)Cl)[OH:7])Cl,O,0,0,6.79,['6.79'],['hunt_et_al']
c1c(cc(cc1Cl)Cl)[OH:7],O,0,0,8.18,['8.18'],['hunt_et_al']
c1cc(c(cc1Cl)[OH:10])N(=O)=O,O,0,0,6.05,['6.05'],['hunt_et_al']
Cc1cc(c(c(c1)Cl)[OH:8])Cl,O,0,0,7.19,['7.19'],['hunt_et_al']
COc1ccc(c(c1)N(=O)=O)[OH:11],O,0,0,7.33,['7.33'],['hunt_et_al']
c1c(cc(c(c1Br)[OH:9])Br)C#N,O,0,0,3.95,['3.95'],['hunt_et_al']
COC(=O)c1ccccc1[OH:10],O,0,0,9.8,['9.8'],['hunt_et_al']
C(CC(=O)O)C(=O)[OH:7],O,0,0,4.21,['4.21'],['hunt_et_al']
C(CC(=O)[O-])C(=O)[OH:7],O,0,0,5.64,['5.64'],['hunt_et_al']
c1cc(cc(c1)F)CC(=O)[OH:10],O,0,0,4.13,['4.13'],['hunt_et_al']
C1CCC(CC1)(C(=O)[O-])[NH3+:8],O,0,0,10.03,['10.03'],['hunt_et_al']
C1CCC(CC1)(C(=O)[OH:10])[NH3+],O,0,0,2.66,['2.66'],['hunt_et_al']
COC(=O)C[C@H](c1ccc(cc1)N(=O)=O)C(=O)[OH:17],O,0,0,3.69,['3.69'],['hunt_et_al']
C[NH+:12](C)Cc1c(cc(c(c1O)O)O)C(=O)OC,O,0,0,6.8,['6.8'],['hunt_et_al']
C[N+](C)(C)CCc1cccc(c1)[OH:13],O,0,0,9.43,['9.43'],['hunt_et_al']
C[N+](C)(C)CCc1ccc(cc1)[OH:13],O,0,0,9.8,['9.8'],['hunt_et_al']
Cc1cc2ccccc2c(c1)C(=O)[OH:14],O,0,0,3.72,['3.72'],['hunt_et_al']
COC(=O)c1cc(cc2c1cccc2)[OH:14],O,0,0,8.88,['8.88'],['hunt_et_al']
c1cc(ccc1C2CCCC2)C(=O)[OH:14],O,0,0,4.21,['4.21'],['hunt_et_al']
CCCCc1cc(c(cc1C)[OH:13])C,O,0,0,10.74,['10.74'],['hunt_et_al']
CC(C)c1cccc(c1[OH:13])C(C)C,O,0,0,11.1,['11.1'],['hunt_et_al']
c1ccc(cc1)c2ccc(c(c2)[OH:13])Cl,O,0,0,8.07,['8.07'],['hunt_et_al']
CCc1ccc(c2c1c(c(s2)C)C)[OH:13],O,0,0,9.56,['9.56'],['hunt_et_al']
c1cc(c(cc1C2CCCCC2)Cl)[OH:13],O,0,0,8.66,['8.66'],['hunt_et_al']
CC(C)(C)c1ccc(cc1)S(=O)(=O)CC(=O)[OH:16],O,0,0,2.598,['2.598'],['hunt_et_al']
c1ccc(cc1)[NH:13]S(=O)(=O)c2ccc(cc2)N(=O)=O,O,0,0,7.42,['7.42'],['hunt_et_al']
c1ccc(cc1)C(=O)c2ccc(cc2)[OH:15],O,0,0,7.95,['7.95'],['hunt_et_al']
COc1ccccc1c2ccccc2[OH:14],O,0,0,10.4,['10.4'],['hunt_et_al']
c1ccc(cc1)CCCCCCC(=O)[OH:15],O,0,0,5.07,['5.07'],['hunt_et_al']
c1ccc2c(c1)ccc(c2/N=N/c3nccs3)[OH:17],O,0,0,8.94,['8.94'],['hunt_et_al']
CC(=O)c1ccc(cc1)c2ccccc2[OH:16],O,0,0,10.78,['10.78'],['hunt_et_al']
c1ccc(cc1)COP(=O)([OH:16])OCc2ccccc2,O,0,0,0.7,['0.7'],['hunt_et_al']
CC(C)(C)c1cc(cc(c1[OH:15])C(C)(C)C)Br,O,0,0,10.83,['10.83'],['hunt_et_al']
CC(C)(C)c1cc(cc(c1[OH:17])C(C)(C)C)N=O,O,0,0,8.18,['8.18'],['hunt_et_al']
CC(C)(C)c1cc(cc(c1[OH:18])C(C)(C)C)N(=O)=O,O,0,0,6.65,['6.65'],['hunt_et_al']
c1ccc(cc1)N(C(=O)c2ccc(cc2)C(F)(F)F)[OH:17],O,0,0,7.98,['7.98'],['hunt_et_al']
CC(C)(C)c1cc(cc(c1[OH:16])C(C)(C)C)OC,O,0,0,12.15,['12.15'],['hunt_et_al']
C[Si](C)(C)C[NH2+:9]C[Si](C)(C)C,O,0,0,11.4,['11.4'],['hunt_et_al']
C[NH+:6](CCCl)CCCl,O,0,0,6.43,['6.43'],['hunt_et_al']
CC[NH+:7](CC)CC,O,0,0,10.9,['10.9'],['hunt_et_al']
C[NH+:19](C)CCC(=O)C(c1ccccc1)c2ccccc2,O,0,0,8.71,['8.71'],['hunt_et_al']
CC[NH+:6](C)CC,O,0,0,10.5,['10.5'],['hunt_et_al']
C(CSCCO)[NH3+:5],O,0,0,9.41,['9.41'],['hunt_et_al']
CC(=O)CCC[NH+:8](C)C,O,0,0,9.1,['9.1'],['hunt_et_al']
CC(C)C[NH3+:5],O,0,0,10.72,['10.72'],['hunt_et_al']
CC(C)C[NH+:7](C)C,O,0,0,10.08,['10.08'],['hunt_et_al']
c1cc(c(cc1N(=O)=O)N(=O)=O)C(=O)[OH:15],O,0,0,1.42,['1.42'],['hunt_et_al']
C=CC[NH3+:4],O,0,0,9.49,['9.49'],['hunt_et_al']
C(C=C(Cl)Cl)[NH3+:4],O,0,0,9.47,['9.47'],['hunt_et_al']
C=CC[NH+:10](CC=C)CC=C,O,0,0,8.31,['8.31'],['hunt_et_al']
C[NH+:6](C)CC=C,O,0,0,8.64,['8.64'],['hunt_et_al']
c1cc(c(cc1N(=O)=O)C(=O)[OH:15])N(=O)=O,O,0,0,1.62,['1.62'],['hunt_et_al']
CCC(CO)(CO)[NH3+:6],O,0,0,8.8,['8.8'],['hunt_et_al']
C(CC(Cl)(Cl)Cl)C[NH3+:5],O,0,0,9.93,['9.93'],['hunt_et_al']
C[C@@H](CC(c1ccccc1)c2ccccc2)[NH+:19](C)C,O,0,0,9.43,['9.43'],['hunt_et_al']
CC[NH+:17](CC)[C@@H](C)C=C(c1cccs1)c2cccs2,O,0,0,8.85,['8.85'],['hunt_et_al']
C#CCC[NH3+:5],O,0,0,8.25,['8.25'],['hunt_et_al']
CCC(CC)[NH3+:6],O,0,0,10.42,['10.42'],['hunt_et_al']
CC(C)C(C(C)C)[NH3+:8],O,0,0,10.23,['10.23'],['hunt_et_al']
CCC(CC)(CC)[NH3+:8],O,0,0,10.59,['10.59'],['hunt_et_al']
CC(C)(C)CC(C)(C)[NH3+:9],O,0,0,10.73,['10.73'],['hunt_et_al']
C(CCCO)CC[NH3+:7],O,0,0,10.6,['10.6'],['hunt_et_al']
CCCCCCC[NH3+:8],O,0,0,10.66,['10.66'],['hunt_et_al']
C[NH2+:7][C@@H]1CCC[C@H]1O,O,0,0,10.06,['10.06'],['hunt_et_al']
CCCOc1cccc(c1)C(=O)[OH:12],O,0,0,4.2,['4.2'],['hunt_et_al']
C[C@H]1CC[C@H]([C@H](C1)[NH3+:8])O,O,0,0,9.38,['9.38'],['hunt_et_al']
C[C@@H]1CC[C@H]([C@H](C1)[NH3+:11])C(C)C,O,0,0,10.35,['10.35'],['hunt_et_al']
C[C@@H]1CCC[C@H](C1)[NH3+:8],O,0,0,10.56,['10.56'],['hunt_et_al']
C[NH+:9](C)C1CCCCC1,O,0,0,10.72,['10.72'],['hunt_et_al']
Cc1cc(cc(c1[NH+:11](C)C)C)Br,O,0,0,4.36,['4.36'],['hunt_et_al']
CC[N@@H+:13](c1ccccc1)C(C)(C)C,O,0,0,8.02,['8.02'],['hunt_et_al']
CCCC[N@H+:12](C)c1ccccc1,O,0,0,6.03,['6.03'],['hunt_et_al']
Cc1ccccc1[NH2+:14]C2CCCCC2,O,0,0,5.34,['5.34'],['hunt_et_al']
c1ccc(cc1)[NH2+:12]C2CCCC2,O,0,0,5.3,['5.3'],['hunt_et_al']
Cc1c(cc(cc1Br)[NH3+:8])Br,O,0,0,2.87,['2.87'],['hunt_et_al']
CC[NH+:12](CC)c1ccccc1C,O,0,0,7.239,['7.239'],['hunt_et_al']
CC[NH+:12](CC)c1cccc(c1)C,O,0,0,7.12,['7.12'],['hunt_et_al']
COc1cc(cc(c1)OC)[NH3+:9],O,0,0,3.82,['3.82'],['hunt_et_al']
Cc1ccccc1[NH2+:9]C,O,0,0,4.62,['4.62'],['hunt_et_al']
Cc1cccc(c1)[NH2+:9]C,O,0,0,5,['5.0'],['hunt_et_al']
Cc1ccc(c(c1)[NH3+:9])C,O,0,0,4.53,['4.53'],['hunt_et_al']
C[NH+:10](C)c1ccc(cc1)C(F)(F)F,O,0,0,2.67,['2.67'],['hunt_et_al']
C[NH+:10](C)c1ccc(cc1)C=O,O,0,0,1.62,['1.62'],['hunt_et_al']
c1ccc(c(c1)[NH3+:7])I,O,0,0,2.6,['2.6'],['hunt_et_al']
CC(C)c1cccc(c1)[NH3+:10],O,0,0,4.67,['4.67'],['hunt_et_al']
COc1ccc(cc1)[NH3+:8],O,0,0,5.31,['5.31'],['hunt_et_al']
C[NH+:11](C)c1ccc(cc1)C(=O)OC,O,0,0,2.52,['2.52'],['hunt_et_al']
CCOc1cccc(c1CO)C(=O)[OH:12],O,0,0,3.62,['3.62'],['hunt_et_al']
Cc1ccccc1[NH3+:8],O,0,0,4.39,['4.39'],['hunt_et_al']
Cc1cc(ccc1[NH3+:8])N(=O)=O,O,0,0,1.04,['1.04'],['hunt_et_al']
CCC[N@H+:11](C)c1ccccc1,O,0,0,5.76,['5.76'],['hunt_et_al']
c1cc(ccc1[NH3+:7])N(=O)=O,O,0,0,1,['1.0'],['hunt_et_al']
Cc1cccc(c1[NH2+:10]C)C,O,0,0,6.12,['6.12'],['hunt_et_al']
C[Si](C)(C)C[NH2+:11]c1ccccc1,O,0,0,5.3,['5.3'],['hunt_et_al']
c1cc(cc(c1)O)[C@H](C[NH3+:9])O,O,0,0,8.67,['8.67'],['hunt_et_al']
C[C@H]([C@H](c1ccc(c(c1)O)O)O)[NH3+:10],O,0,0,8.75,['8.75'],['hunt_et_al']
CCc1ccc(cc1)CC(=O)[OH:12],O,0,0,4.37,['4.37'],['hunt_et_al']
C[C@@H](CO)[NH2+:12]CCc1ccc(c(c1)O)O,O,0,0,9.87,['9.87'],['hunt_et_al']
Cc1cc(cc(c1C(=[NH2+:15])c2ccccc2)O)O,O,0,0,6.75,['6.75'],['hunt_et_al']
c1ccc(cc1)C(=[NH2+:14])c2ccc(cc2)O,O,0,0,6.45,['6.45'],['hunt_et_al']
CC(C)[NH2+:12]CCc1ccc(cc1)O,O,0,0,9.49,['9.49'],['hunt_et_al']
Cc1ccccc1C(=[NH2+:15])c2ccccc2,O,0,0,6.79,['6.79'],['hunt_et_al']
c1ccc(c(c1)C[NH3+:8])Cl,O,0,0,8.8,['8.8'],['hunt_et_al']
CCC[NH2+:11]Cc1ccccc1,O,0,0,9.6,['9.6'],['hunt_et_al']
c1ccc-2c(c1)Cc3c2cc(cc3)[NH3+:14],O,0,0,4.82,['4.82'],['hunt_et_al']
c1ccc2c(c1)CC[C@@H]2[NH3+:10],O,0,0,9.21,['9.21'],['hunt_et_al']
c1ccc2c(c1)cc(cc2[NH3+:11])Br,O,0,0,2.67,['2.67'],['hunt_et_al']
c1ccc2c(c1)c(ccc2Br)[NH3+:11],O,0,0,3.21,['3.21'],['hunt_et_al']
c1ccc2c(c1)cc(cc2I)[NH3+:11],O,0,0,3.41,['3.41'],['hunt_et_al']
COC(=O)c1cc(cc2c1cccc2)[NH3+:13],O,0,0,3.38,['3.38'],['hunt_et_al']
c1cc2cccc(c2c(c1)[NH3+:11])N(=O)=O,O,0,0,2.79,['2.79'],['hunt_et_al']
C[NH+:13](C)c1ccc2ccccc2c1,O,0,0,4.566,['4.566'],['hunt_et_al']
C[C@@H](C=C(c1cccs1)c2cccs2)[NH+:19]3CCCCCC3,O,0,0,7.91,['7.91'],['hunt_et_al']
CC(C)[N@@H+:12]1CCC[C@H](C(=O)CCC1)O,O,0,0,8.1,['8.1'],['hunt_et_al']
C1CC[NH2+:6]CC1,O,0,0,11.1,['11.1'],['hunt_et_al']
C[C@@H]1CCC[C@@H]([NH2+:8]1)C,O,0,0,11.07,['11.07'],['hunt_et_al']
CC[NH+:8]1CCCCC1,O,0,0,10.45,['10.45'],['hunt_et_al']
C[NH+:7]1CCCCC1,O,0,0,10.1,['10.1'],['hunt_et_al']
C[C@@H]1CCCC([N@H+:10]1C)(C)C,O,0,0,10.7,['10.7'],['hunt_et_al']
CC1(CCCC([NH2+:10]1)(C)C)C,O,0,0,11.1,['11.1'],['hunt_et_al']
CC[N@H+:9]1CCCC=C1C,O,0,0,11.53,['11.53'],['hunt_et_al']
c1ccc(c(c1)c2ccccn2)[OH:13],O,0,0,9.98,['9.98'],['hunt_et_al']
C[NH2+:10]CCc1ccccn1,O,0,0,9.78,['9.78'],['hunt_et_al']
CN(c1cccc[nH+:8]1)S(=O)(=O)C,O,0,0,1.73,['1.73'],['hunt_et_al']
c1ccc(cc1)/N=N/c2cccc[nH+:12]2,O,0,0,2,['2.0'],['hunt_et_al']
c1ccnc(c1)C[NH+:13]2CCCCC2,O,0,0,8.51,['8.51'],['hunt_et_al']
CCCC[N@@H+:10]1CCC[C@H]1C,O,0,0,10.61,['10.61'],['hunt_et_al']
C1CCC(CC1)[C@@H]2CCC[NH2+:11]2,O,0,0,10.76,['10.76'],['hunt_et_al']
CC[C@@H]1CCC[N@H+:8]1C,O,0,0,9.78,['9.78'],['hunt_et_al']
c1ccc(cc1)[C@@H]2CCC[NH2+:11]2,O,0,0,9.6,['9.6'],['hunt_et_al']
C1CCC(CC1)C2=CCC[NH2+:11]2,O,0,0,7.91,['7.91'],['hunt_et_al']
CC1=CCC[N@@H+:7]1C,O,0,0,11.9,['11.9'],['hunt_et_al']
CC[N@H+:8]1CCC=C1C,O,0,0,11.84,['11.84'],['hunt_et_al']
c1ccc(cc1)C2=CCC[NH2+:11]2,O,0,0,6.84,['6.84'],['hunt_et_al']
c1ccc(cc1)C(c2ccccc2)C(=O)CC[NH+:21]3CCOCC3,O,0,0,6.39,['6.39'],['hunt_et_al']
Cc1ccc(cc1)S(=O)(=O)N2CC[NH2+:12]CC2,O,0,0,7.4,['7.4'],['hunt_et_al']
c1cc(nnc1[OH:7])O,O,0,0,13,['13.0'],['hunt_et_al']
c1cc(nnc1)[OH:7],O,0,0,10.5,['10.5'],['hunt_et_al']
c1c(cnc([nH+:5]1)N)Br,O,0,0,1.95,['1.95'],['hunt_et_al']
Cn1c(cc(=[NH2+:8])nc1N)SC,O,0,0,11.9,['11.9'],['hunt_et_al']
CNc1[nH+:6]ccc(n1)O,O,0,0,3.9,['3.9'],['hunt_et_al']
CCCNc1[nH+:8]cccn1,O,0,0,4.09,['4.09'],['hunt_et_al']
Cc1ccc(c(c1)C)[OH:9],O,0,0,10.45,['10.45'],['hunt_et_al']
Cc1ccc(c(c1)[OH:9])C,O,0,0,10.22,['10.22'],['hunt_et_al']
c1ccc2cnc(cc2c1)[OH:11],O,0,0,9.62,['9.62'],['hunt_et_al']
c1cc(cc2c1ccnc2)[OH:11],O,0,0,8.9,['8.9'],['hunt_et_al']
c1cc2c(c(c1)[OH:11])CCCC2,O,0,0,10.28,['10.28'],['hunt_et_al']
c1cc2cc(ccc2nc1)C(=O)[OH:13],O,0,0,0.1,['0.1'],['hunt_et_al']
c1ccc2c(c1)cccc2[OH:11],O,0,0,9.3,['9.3'],['hunt_et_al']
c1ccc(c(c1)[OH:7])O,O,0,0,9.125,['9.125'],['hunt_et_al']
c1cc2ccc(c(c2nc1)O)C[NH+:17]3CCCCC3,O,0,0,10.9,['10.9'],['hunt_et_al']
c1cc2cc(cc(c2nc1)[OH:12])C(F)(F)F,O,0,0,10.1,['10.1'],['hunt_et_al']
c1ccc2c(c1)c(ccc2O)[OH:11],O,0,0,9.58,['9.58'],['hunt_et_al']
C1C[NH+:10]2CCC1[C@H](C2)C#N,O,0,0,7.81,['7.81'],['hunt_et_al']
COC(=O)[C@@H]1C[NH+:10]2CCC1CC2,O,0,0,9.4,['9.4'],['hunt_et_al']
c1cc(cc(c1)F)[OH:7],O,0,0,9.28,['9.28'],['hunt_et_al']
c1cc(ccc1[OH:7])F,O,0,0,9.95,['9.95'],['hunt_et_al']
c1ccc(c(c1)[OH:7])Br,O,0,0,8.39,['8.39'],['hunt_et_al']
c1cc(cc(c1)Br)[OH:7],O,0,0,8.87,['8.87'],['hunt_et_al']
c1cc2c(ccnn2)c(c1)[OH:11],O,0,0,7.42,['7.42'],['hunt_et_al']
c1cc2c(c(ccn2)[OH:11])nc1,O,0,0,10.03,['10.03'],['hunt_et_al']
c1c(c(c(c(c1Cl)Cl)Cc2c(c(cc(c2Cl)Cl)Cl)O)[OH:14])Cl,O,0,0,10.1,['10.1'],['hunt_et_al']
c1cc(ccc1N(=O)=O)[OH:10],O,0,0,7.15,['7.15'],['hunt_et_al']
c1cc2c(cc1[OH:11])nccn2,O,0,0,7.94,['7.94'],['hunt_et_al']
c1cc(nc2c1[nH+:8]ccn2)N,O,0,0,4.25,['4.25'],['hunt_et_al']
c1cc([nH+:10]c2c1nccn2)N,O,0,0,4.25,['4.25'],['hunt_et_al']
c1cc(nc2c1nccn2)[NH3+:11],O,0,0,4.25,['4.25'],['hunt_et_al']
c1cc([nH+:10]c2c1[nH+]ccn2)N,O,0,0,-2,['-2.0'],['hunt_et_al']
c1cc(nc2c1[nH+]ccn2)[NH3+:11],O,0,0,-2,['-2.0'],['hunt_et_al']
c1cc([nH+]c2c1[nH+:8]ccn2)N,O,0,0,-2,['-2.0'],['hunt_et_al']
c1cc(nc2c1[nH+:8]ccn2)[NH3+],O,0,0,-2,['-2.0'],['hunt_et_al']
c1ccc2c(c1)C(=O)c3ccc(cc3C2=O)S(=O)(=O)[OH:19],O,0,0,0.378,['0.378'],['hunt_et_al']
CCOP(=O)(C[NH+:8](C)C)OCC,O,0,0,5.85,['5.85'],['hunt_et_al']
CC[NH+:11](CC)CCP(=O)(OCC)OCC,O,0,0,8.2,['8.2'],['hunt_et_al']
CCOP(=O)(OCC)SCC[NH+:9](C)C,O,0,0,7.73,['7.73'],['hunt_et_al']
CC[C@@H](C[NH+:11](CC)C[C@H](CC)O)O,O,0,0,9.2,['9.2'],['hunt_et_al']
c1cc(ccc1[C@@H]2C[C@H]2[NH3+:10])Br,O,0,0,8.13,['8.13'],['hunt_et_al']
c1cc(ccc1[C@@H]2C[C@H]2[NH3+:10])F,O,0,0,8.25,['8.25'],['hunt_et_al']
c1ccc(cc1)[C@@H]2C[C@H]2[NH3+:10],O,0,0,8.27,['8.27'],['hunt_et_al']
C1C[C@H]2C[C@@H]1C[C@H]2[NH3+:8],O,0,0,10.5,['10.5'],['hunt_et_al']
C1C2CC3CC1CC(C2)(C3)[NH3+:11],O,0,0,10.68,['10.68'],['hunt_et_al']
CC[NH+:8](CC)CC#C,O,0,0,7.97,['7.97'],['hunt_et_al']
CC(C)C[NH+:9]1CCCC1,O,0,0,10.38,['10.38'],['hunt_et_al']
CCCO[P@](=O)(C)OCC[NH+:9](C)C,O,0,0,8.24,['8.24'],['hunt_et_al']
CCCO[P@@](=O)(C)SCC[NH+:9](C)C,O,0,0,7.77,['7.77'],['hunt_et_al']
C[C@H](C[N@H+:10](CCO)C(C)(C)C)O,O,0,0,9.2,['9.2'],['hunt_et_al']
CCC[C@@H](c1ccc(cc1)C)[NH3+:12],O,0,0,9.62,['9.62'],['hunt_et_al']
C[C@@H](c1ccc(cc1)Br)[NH3+:9],O,0,0,8.95,['8.95'],['hunt_et_al']
CCCCOc1ccc(cc1)[C@H](C)[NH3+:13],O,0,0,9.45,['9.45'],['hunt_et_al']
CC(C)[C@@H](c1ccccc1)[NH3+:11],O,0,0,9.85,['9.85'],['hunt_et_al']
CC[C@H](c1cccc(c1)Br)[NH3+:10],O,0,0,8.9,['8.9'],['hunt_et_al']
CC(C)[NH2+:12]C[C@@H](c1ccc(c(c1)Cl)Cl)O,O,0,0,9.27,['9.27'],['hunt_et_al']
C[NH2+:10]C[C@@H](c1ccc(c(c1)Cl)Cl)O,O,0,0,9.11,['9.11'],['hunt_et_al']
CC[NH+:19](CC)CC(c1ccccc1)c2ccccc2,O,0,0,9.8,['9.8'],['hunt_et_al']
C[NH2+:10]C[C@@H](c1ccc(c(c1)F)F)O,O,0,0,9.23,['9.23'],['hunt_et_al']
Cc1ccccc1[C@H](C[NH2+:13]C(C)C)O,O,0,0,9.01,['9.01'],['hunt_et_al']
Cc1cccc(c1)[C@H](C[NH2+:13]C(C)C)O,O,0,0,9.45,['9.45'],['hunt_et_al']
CC(C)[NH2+:13]C[C@@H](c1cccc(c1)SC)O,O,0,0,9.42,['9.42'],['hunt_et_al']
CC(C)[NH2+:18]C[C@@H](c1ccc(cc1)c2ccccc2)O,O,0,0,9.2,['9.2'],['hunt_et_al']
c1cc(cc(c1)Br)C[NH+:12](CCO)CCO,O,0,0,8.98,['8.98'],['hunt_et_al']
c1cc(cc(c1)Br)C[NH2+:14]c2ccc(cc2N(=O)=O)N(=O)=O,O,0,0,-5.49,['-5.49'],['hunt_et_al']
c1ccc(cc1)C[NH2+:14]c2ccc(cc2N(=O)=O)N(=O)=O,O,0,0,-4.9,['-4.9'],['hunt_et_al']
c1cc(ccc1C[NH2+:14]c2ccc(cc2N(=O)=O)N(=O)=O)F,O,0,0,-4.99,['-4.99'],['hunt_et_al']
c1cc(ccc1C[NH3+:8])F,O,0,0,9.3,['9.3'],['hunt_et_al']
C[NH+:11](C)Cc1ccc(cc1)OC,O,0,0,9.32,['9.32'],['hunt_et_al']
C=CCC(=O)OCC[NH+:12]1CCCCC1,O,0,0,8.35,['8.35'],['hunt_et_al']
CC1CC[NH+:8](CC1)C,O,0,0,10.05,['10.05'],['hunt_et_al']
CC(C)C1CC[NH2+:9]CC1,O,0,0,10.85,['10.85'],['hunt_et_al']
CC1(CCC[N@@H+:9](C1)C)C,O,0,0,9.77,['9.77'],['hunt_et_al']
c1c(c[nH+:6]c(c1Cl)N)Cl,O,0,0,2.75,['2.75'],['hunt_et_al']
c1cc([nH+:6]cc1N(=O)=O)N,O,0,0,2.78,['2.78'],['hunt_et_al']
Cn1cc[nH+:6]c1C(=O)[O-],O,0,0,7.25,['7.25'],['hunt_et_al']
Cn1cc[nH+]c1C(=O)[OH:9],O,0,0,1.53,['1.53'],['hunt_et_al']
Cc1c(c(nc([nH+:11]1)NC)C)CC=C,O,0,0,5.31,['5.31'],['hunt_et_al']
Cc1c(c(nc([nH+:8]1)N)C)C(=O)N,O,0,0,3.31,['3.31'],['hunt_et_al']
CNc1[nH+:7]cc(cn1)C(=O)N,O,0,0,2.05,['2.05'],['hunt_et_al']
COc1ccc(cc1)c2cnc(nc2)[OH:14],O,0,0,8.86,['8.86'],['hunt_et_al']
CC[C@H]1CSC(=[NH+:9]1)C(C)C,O,0,0,5.276,['5.276'],['hunt_et_al']
CC[C@H]1CSC(=[NH+:7]1)C,O,0,0,5.301,['5.301'],['hunt_et_al']
CC1=[NH+:7]CC(S1)(C)C,O,0,0,5.67,['5.67'],['hunt_et_al']
c1ccc2c(c1)c(=O)cc(o2)c3cccc(c3)[NH3+:16],O,0,0,3.56,['3.56'],['hunt_et_al']
c1(nc(nc(n1)O)O)[OH:7],O,0,0,6.78,['6.78'],['hunt_et_al']
C[NH+:19](C)CCCN1c2ccccc2Sc3c1cccc3,O,0,0,9.4,['9.4'],['hunt_et_al']
c1ccc2c(c1)N(c3ccccc3S2)CC[NH+:20]4CCCC4,O,0,0,9.7,['9.7'],['hunt_et_al']
CC(=O)c1ccc(cc1)Sc2ccc(cc2)[NH3+:15],O,0,0,3.31,['3.31'],['hunt_et_al']
c1cc(ccc1[C@@]23CCC[C@@H]2C3)[NH3+:13],O,0,0,4.98,['4.98'],['hunt_et_al']
CC(C)(C)S[NH2+:11]c1ccccc1,O,0,0,3.44,['3.44'],['hunt_et_al']
c1cc(ccc1C2CCCCC2)[NH3+:13],O,0,0,4.96,['4.96'],['hunt_et_al']
c1cc(c(c(c1)Cl)Cl)[NH3+:7],O,0,0,1.761,['1.761'],['hunt_et_al']
c1cc(c(cc1[NH3+:7])Cl)Cl,O,0,0,2.968,['2.968'],['hunt_et_al']
CSc1cc(c(c(c1)Cl)[NH3+:8])Cl,O,0,0,0.35,['0.35'],['hunt_et_al']
Cc1ccc(c(c1)N(=O)=O)[NH3+:8],O,0,0,0.403,['0.403'],['hunt_et_al']
Cc1ccc(c(c1)[NH3+:8])N(=O)=O,O,0,0,-0.09,['-0.09'],['hunt_et_al']
Cc1cccc(c1[NH3+:8])N(=O)=O,O,0,0,-0.71,['-0.71'],['hunt_et_al']
c1cc(ccc1Cc2ccc(cc2)N(=O)=O)[NH3+:14],O,0,0,4.45,['4.45'],['hunt_et_al']
c1cc(ccc1[NH3+:9])OC(C(F)(F)F)(F)F,O,0,0,3.78,['3.78'],['hunt_et_al']
COC(=O)CCC[NH3+:6],O,0,0,9.838,['9.838'],['hunt_et_al']
CCOC(=O)CCCC[NH3+:8],O,0,0,10.5,['10.5'],['hunt_et_al']
C([C@@H]([C@@H]1C(=C(C(=O)O1)[OH:9])O)O)O,O,0,0,4.17,['4.17'],['hunt_et_al']
C([C@@H]([C@@H]1C(=C(C(=O)O1)O)[OH:10])O)O,O,0,0,4.17,['4.17'],['hunt_et_al']
C([C@@H]([C@@H]1C(=C(C(=O)O1)[O-])[OH:10])O)O,O,0,0,11.57,['11.57'],['hunt_et_al']
C([C@@H]([C@@H]1C(=C(C(=O)O1)[OH:9])[O-])O)O,O,0,0,11.57,['11.57'],['hunt_et_al']
c1ccc(cc1)C(=O)NCC(=O)[OH:13],O,0,0,3.62,['3.62'],['hunt_et_al']
C(=O)(C(F)(F)Cl)[OH:4],O,0,0,0.46,['0.46'],['hunt_et_al']
C[C@@](C#N)(c1ccccc1)C(=O)[OH:13],O,0,0,2.29,['2.29'],['hunt_et_al']
c1cc(cc(c1)[OH:9])C#N,O,0,0,8.61,['8.61'],['hunt_et_al']
CCOc1cccc(c1)[OH:9],O,0,0,9.655,['9.655'],['hunt_et_al']
c1cc(ccc1C=O)[OH:9],O,0,0,7.62,['7.62'],['hunt_et_al']
C(CC(=O)[OH:6])CO,O,0,0,4.71,['4.71'],['hunt_et_al']
c1cc(c(cc1N(=O)=O)C(=O)[OH:13])O,O,0,0,2.12,['2.12'],['hunt_et_al']
C[NH2+:4]CCO,O,0,0,9.88,['9.88'],['hunt_et_al']
C[P@@H](=O)[OH:3],O,0,0,3.08,['3.08'],['hunt_et_al']
CS(=O)(=O)CC(=O)[OH:7],O,0,0,2.36,['2.36'],['hunt_et_al']
C(=C(F)F)(C(=O)[OH:5])F,O,0,0,1.79,['1.79'],['hunt_et_al']
c1ccc2c(c1)c(c[nH]2)CC[NH3+:12],O,0,0,10.2,['10.2'],['hunt_et_al']
CC(=C)C(=O)[OH:6],O,0,0,4.66,['4.66'],['hunt_et_al']
COc1ccc(cc1)CCC(=O)[OH:12],O,0,0,4.69,['4.69'],['hunt_et_al']
COc1cccc(c1)C[NH3+:9],O,0,0,9.15,['9.15'],['hunt_et_al']
Cc1ccc(cc1)C[NH3+:9],O,0,0,9.36,['9.36'],['hunt_et_al']
C1CC1[NH3+:4],O,0,0,9.1,['9.1'],['hunt_et_al']
CCc1ccc(cc1)[OH:9],O,0,0,10,['10.0'],['hunt_et_al']
C[NH+:11](C)CCc1ccc(cc1)O,O,0,0,9.78,['9.78'],['hunt_et_al']
Cc1cnc2c(c1C)cccc2[OH:13],O,0,0,10.05,['10.05'],['hunt_et_al']
c1cc2cccnc2c(c1)[OH:11],O,0,0,9.81,['9.81'],['hunt_et_al']
CC(=O)CCCC(=O)[OH:9],O,0,0,4.66,['4.66'],['hunt_et_al']
COc1c(cccc1O)C[NH3+:9],O,0,0,8.89,['8.89'],['hunt_et_al']
C=CC(=O)[OH:5],O,0,0,4.25,['4.25'],['hunt_et_al']
C[C@H](C[NH+:14](Cc1ccccc1)C[C@@H](C)O)O,O,0,0,7.5,['7.5'],['hunt_et_al']
c1c(cc(c(c1N(=O)=O)[OH:16])N(=O)=O)N(=O)=O,O,0,0,0.29,['0.29'],['hunt_et_al']
c1cc2c(cc1O)c(c[nH]2)CC[NH3+:12],O,0,0,10,['10.0'],['hunt_et_al']
Cc1cc(ccc1C(=O)[OH:10])Br,O,0,0,3.77,['3.77'],['hunt_et_al']
c1ccc2cc(ccc2c1)C(=O)[OH:13],O,0,0,4.18,['4.18'],['hunt_et_al']
c1cc(cc(c1)N(=O)=O)CC(=O)[OH:13],O,0,0,3.97,['3.97'],['hunt_et_al']
C[NH2+:10]C[C@@H](c1ccccc1)O,O,0,0,9.44,['9.44'],['hunt_et_al']
CCC(CC)C(=O)[OH:8],O,0,0,4.73,['4.73'],['hunt_et_al']