Solute SMILES,Solvent SMILES,Solute CAS,Solute IUPAC,pKa (avg),pKa (all),Source (all)
C[N+](C)(C)c1ccc(cc1)CCC(=O)[OH:15],O,0,0,4.22,['4.22'],['hunt_et_al']
C[C@@](Cc1ccc(cc1)N(=O)=O)(CC(=O)[OH:19])C(=O)OC,O,0,0,4.45,['4.45'],['hunt_et_al']
c1ccc2c(c1)ccc(c2[OH:17])/N=N/c3nccs3,O,0,0,9.1,['9.1'],['hunt_et_al']
CC(C)(C)c1ccc(c(c1)C(C)(C)C)[OH:15],O,0,0,11.72,['11.72'],['hunt_et_al']
CC(C)(C)c1cccc(c1[OH:15])C(C)(C)C,O,0,0,11.7,['11.7'],['hunt_et_al']
c1ccc2c(c1)ccc(c2[OH:19])/N=N/c3ccccn3,O,0,0,7.9,['7.9'],['hunt_et_al']
c1ccc(cc1)N(C(=O)c2cc(cc(c2)N(=O)=O)C(F)(F)F)[OH:20],O,0,0,7.85,['7.85'],['hunt_et_al']
c1ccc(cc1)N(C(=O)c2ccccc2C(F)(F)F)[OH:17],O,0,0,7.88,['7.88'],['hunt_et_al']
c1ccc2c(c1)ccc(c2/N=N/c3ccccn3)[OH:19],O,0,0,11.2,['11.2'],['hunt_et_al']
CC(=O)c1cc(c(c(c1)C(C)(C)C)[OH:18])C(C)(C)C,O,0,0,8.68,['8.68'],['hunt_et_al']
CC1([C@H](N2[C@@H](S1)[C@@H](C2=O)NC(=O)Cc3ccccc3)C(=O)[OH:22])C,O,0,0,2.72,['2.72'],['hunt_et_al']
CC(=[NH2+:3])N,O,0,0,12.4,['12.4'],['hunt_et_al']
CCO[Si](C)(C[NH3+:7])OCC,O,0,0,9.2,['9.2'],['hunt_et_al']
CC(C)(C[NH3+:5])O,O,0,0,9.25,['9.25'],['hunt_et_al']
CC(C)(CO)[NH3+:5],O,0,0,9.71,['9.71'],['hunt_et_al']
CC(C)(C)[NH3+:5],O,0,0,10.68,['10.68'],['hunt_et_al']
C(C[NH3+:4])C(F)(F)F,O,0,0,8.7,['8.7'],['hunt_et_al']
C[Si](C)(C)CCC[NH3+:7],O,0,0,10.73,['10.73'],['hunt_et_al']
CC(C)[NH+:8](CCCl)CCCl,O,0,0,6.98,['6.98'],['hunt_et_al']
c1cc(ccc1C#N)C(=O)[OH:11],O,0,0,3.55,['3.55'],['hunt_et_al']
c1cc(c(c(c1)N(=O)=O)N(=O)=O)C(=O)[OH:15],O,0,0,1.85,['1.85'],['hunt_et_al']
CC(C)[NH+:9](CCO)C(C)C,O,0,0,10.08,['10.08'],['hunt_et_al']
CC(C)C[NH2+:9]CC(C)C,O,0,0,10.91,['10.91'],['hunt_et_al']
CC(C)[NH2+:8]C[Si](C)(C)C,O,0,0,10.8,['10.8'],['hunt_et_al']
CCCC[NH3+:5],O,0,0,10.7,['10.7'],['hunt_et_al']
CCCC[NH+:13](CCCC)CCCC,O,0,0,9.93,['9.93'],['hunt_et_al']
CCC(=O)C(C[C@H](C)[NH+:22](C)C)(c1ccccc1)c2ccccc2,O,0,0,8.94,['8.94'],['hunt_et_al']
C[C@@H](C=C(c1ccccc1)c2ccccc2)[NH+:19](C)C,O,0,0,9.21,['9.21'],['hunt_et_al']
CCCCCCCCCC[NH+:17](C[C@@H](C)O)C[C@@H](C)O,O,0,0,7.6,['7.6'],['hunt_et_al']
CCCOc1ccccc1C(=O)[OH:12],O,0,0,4.24,['4.24'],['hunt_et_al']
C[NH2+:7]C1CCCC1,O,0,0,10.85,['10.85'],['hunt_et_al']
C1CCC(CC1)C[NH3+:8],O,0,0,10.49,['10.49'],['hunt_et_al']
CC1(CCCCC1)[NH3+:8],O,0,0,10.36,['10.36'],['hunt_et_al']
C[C@@H]1CCCC[C@@H]1[NH3+:8],O,0,0,10.5,['10.5'],['hunt_et_al']
C[NH2+:8]C1CCCCC1,O,0,0,11.04,['11.04'],['hunt_et_al']
CCCCOc1cccc(c1)C(=O)[OH:13],O,0,0,4.25,['4.25'],['hunt_et_al']
Cc1cc(cc(c1[NH3+:9])C)Br,O,0,0,3.54,['3.54'],['hunt_et_al']
CC(C)(C)[NH2+:11]c1ccccc1,O,0,0,7,['7.0'],['hunt_et_al']
c1ccc(cc1)Oc2cccc(c2)C(=O)[OH:15],O,0,0,3.95,['3.95'],['hunt_et_al']
Cc1ccccc1[NH2+:12]C(C)(C)C,O,0,0,6.49,['6.49'],['hunt_et_al']
c1ccc(cc1)/[NH+:14]=C/c2ccc(cc2)Cl,O,0,0,2.8,['2.8'],['hunt_et_al']
COc1cc(cc(c1)Cl)[NH3+:8],O,0,0,3.1,['3.1'],['hunt_et_al']
C[NH+:11](C)c1cccc(c1)C#N,O,0,0,2.969,['2.969'],['hunt_et_al']
C[N@@H+:14](c1ccccc1)C2CCCCC2,O,0,0,6.35,['6.35'],['hunt_et_al']
c1cc(c(cc1Br)Br)[NH3+:7],O,0,0,2.3,['2.3'],['hunt_et_al']
c1cc(c(cc1Cl)Cl)[NH3+:7],O,0,0,2,['2.0'],['hunt_et_al']
CC[NH+:11](CC)c1ccccc1,O,0,0,6.61,['6.61'],['hunt_et_al']
Cc1cccc(c1C)[NH3+:9],O,0,0,4.7,['4.7'],['hunt_et_al']
Cc1cccc(c1[NH3+:9])C,O,0,0,3.95,['3.95'],['hunt_et_al']
Cc1cc(cc(c1)[NH3+:9])C,O,0,0,4.91,['4.91'],['hunt_et_al']
c1cc(c(c(c1)Br)CO)C(=O)[OH:10],O,0,0,3.28,['3.28'],['hunt_et_al']
Cc1c(c(ccc1[NH3+:9])N(=O)=O)C,O,0,0,1.96,['1.96'],['hunt_et_al']
CCOC(=O)c1ccc(cc1)[NH3+:10],O,0,0,2.52,['2.52'],['hunt_et_al']
CCOC(=O)c1ccccc1[NH+:12](C)C,O,0,0,5.48,['5.48'],['hunt_et_al']
CCc1cccc(c1)[NH3+:9],O,0,0,4.7,['4.7'],['hunt_et_al']
CC[NH2+:10]c1ccccc1C,O,0,0,4.96,['4.96'],['hunt_et_al']
CC[NH2+:10]c1ccc(cc1)C,O,0,0,5.72,['5.72'],['hunt_et_al']
CCC(C)(CC)[NH2+:13]c1ccccc1,O,0,0,6.34,['6.34'],['hunt_et_al']
CCC[N@H+:12](CC)c1ccccc1,O,0,0,6.39,['6.39'],['hunt_et_al']
c1cc(c(c(c1)I)CO)C(=O)[OH:10],O,0,0,3.18,['3.18'],['hunt_et_al']
Cc1cc(ccc1N(=O)=O)[NH3+:8],O,0,0,1.5,['1.5'],['hunt_et_al']
c1ccc(cc1)CC[NH3+:9],O,0,0,9.84,['9.84'],['hunt_et_al']
C[C@H](CCCc1ccccc1)[NH3+:12],O,0,0,9.99,['9.99'],['hunt_et_al']
c1ccc(cc1)CCCCC[NH3+:12],O,0,0,10.44,['10.44'],['hunt_et_al']
C[C@H](CCCc1ccc(cc1)O)[NH3+:12],O,0,0,9.4,['9.4'],['hunt_et_al']
C[C@H](Cc1ccccc1)[NH3+:10],O,0,0,9.94,['9.94'],['hunt_et_al']
c1ccc(cc1)CCC[NH3+:10],O,0,0,10.16,['10.16'],['hunt_et_al']
C[C@H](Cc1ccc2c(c1)OCO2)[NH3+:11],O,0,0,9.67,['9.67'],['hunt_et_al']
CC(C)(C)c1ccc(cc1)CC(=O)[OH:14],O,0,0,4.42,['4.42'],['hunt_et_al']
C[C@H]([C@H](c1ccccc1)O)[NH+:12](C)C,O,0,0,9.2,['9.2'],['hunt_et_al']
C[NH2+:10]C[C@@H](c1cccc(c1)O)O,O,0,0,8.86,['8.86'],['hunt_et_al']
Cc1ccccc1CCC(=O)[OH:12],O,0,0,4.66,['4.66'],['hunt_et_al']
COc1ccccc1C(=[NH2+:15])c2ccccc2,O,0,0,7.29,['7.29'],['hunt_et_al']
Cc1cccc(c1)CCC(=O)[OH:12],O,0,0,4.68,['4.68'],['hunt_et_al']
C[NH2+:10]CCc1ccccc1,O,0,0,10.08,['10.08'],['hunt_et_al']
C[N@H+:23](Cc1ccccc1)CC(c2ccccc2)c3ccccc3,O,0,0,7.5,['7.5'],['hunt_et_al']
CC[NH2+:10]Cc1ccccc1,O,0,0,9.64,['9.64'],['hunt_et_al']
Cc1ccccc1C[NH3+:9],O,0,0,9.19,['9.19'],['hunt_et_al']
c1cc(cc(c1)S(=O)(=O)N)C[NH3+:8],O,0,0,8.55,['8.55'],['hunt_et_al']
Cc1cccc(c1)/C=C/C(=O)[OH:12],O,0,0,4.44,['4.44'],['hunt_et_al']
c1cc2c(cc1[NH3+:10])CCC2,O,0,0,5.31,['5.31'],['hunt_et_al']
Cc1cc(cc(c1)[NH2+:18][C@H]2CCc3c2cccc3)C,O,0,0,1.3,['1.3'],['hunt_et_al']
c1ccc2c(c1)cc(cc2Br)[NH3+:11],O,0,0,3.4,['3.4'],['hunt_et_al']
c1cc2c(cccc2Cl)c(c1)[NH3+:11],O,0,0,3.34,['3.34'],['hunt_et_al']
c1ccc2c(c1)cc(cc2[NH3+:13])C#N,O,0,0,2.26,['2.26'],['hunt_et_al']
COc1ccc2ccc(cc2c1)[NH3+:12],O,0,0,4.19,['4.19'],['hunt_et_al']
Cc1cc2ccccc2c(c1)[NH3+:12],O,0,0,3.96,['3.96'],['hunt_et_al']
c1ccc2c(c1)cc(cc2[NH3+:11])N(=O)=O,O,0,0,2.07,['2.07'],['hunt_et_al']
c1cc(cc2c1ccc(c2)N(=O)=O)[NH3+:11],O,0,0,3.1,['3.1'],['hunt_et_al']
Cc1ccccc1/C=C/c2ccc(cc2)[NH+:18](C)C,O,0,0,4.67,['4.67'],['hunt_et_al']
c1ccc(cc1)[C@@H](C(=O)[OH:10])Br,O,0,0,2.21,['2.21'],['hunt_et_al']
C1C[NH2+:4]C1,O,0,0,11.3,['11.3'],['hunt_et_al']
C[NH+:5]1CCC1,O,0,0,10.4,['10.4'],['hunt_et_al']
CCCC[NH+:7]1CC1,O,0,0,7.86,['7.86'],['hunt_et_al']
CC[C@H]1C[NH2+:5]1,O,0,0,8.31,['8.31'],['hunt_et_al']
C[NH+:9]1CCCC(=O)CCC1,O,0,0,8.75,['8.75'],['hunt_et_al']
CC(C)(C#N)[NH+:11]1CCCCC1,O,0,0,9.22,['9.22'],['hunt_et_al']
c1ccc(cc1)C(c2ccccc2)C(=O)CC[NH+:22]3CCCCC3,O,0,0,9.45,['9.45'],['hunt_et_al']
c1ccc(cc1)C(CC[NH+:21]2CCCCC2)c3ccccc3,O,0,0,8.91,['8.91'],['hunt_et_al']
CCC(=O)C(CC[NH+:24]1CCCCC1)(c2ccccc2)c3ccccc3,O,0,0,8.81,['8.81'],['hunt_et_al']
CCC(=O)C(C[C@H](C)[NH+:25]1CCCCC1)(c2ccccc2)c3ccccc3,O,0,0,8.53,['8.53'],['hunt_et_al']
CCC[NH+:9]1CCCCC1,O,0,0,10.5,['10.5'],['hunt_et_al']
c1cc(cnc1)[C@H]2CCCC[NH2+:12]2,O,0,0,11,['11.0'],['hunt_et_al']
C[C@H]1CC[NH2+:9]C(C1)(C)C,O,0,0,11.04,['11.04'],['hunt_et_al']
C[C@H]1CCCC([NH2+:9]1)(C)C,O,0,0,11.21,['11.21'],['hunt_et_al']
c1ccc(c(c1)CCC(=O)[OH:11])Cl,O,0,0,4.58,['4.58'],['hunt_et_al']
C[NH+:18](C)CC[C@@H](c1ccc(cc1)Cl)c2ccccn2,O,0,0,9.26,['9.26'],['hunt_et_al']
c1cc([nH+:6]cc1N)N,O,0,0,6.48,['6.48'],['hunt_et_al']
c1cc(ncc1[NH3+:7])N,O,0,0,6.48,['6.48'],['hunt_et_al']
c1cc(ncc1N)[NH3+:8],O,0,0,6.48,['6.48'],['hunt_et_al']
c1cc([nH+]cc1[NH3+:7])N,O,0,0,2.13,['2.13'],['hunt_et_al']
c1cc(ccc1/C=C/C(=O)[OH:11])Cl,O,0,0,4.41,['4.41'],['hunt_et_al']
C[NH+:11](C)CCc1cccnc1,O,0,0,8.86,['8.86'],['hunt_et_al']
c1cc(c(cc1N(=O)=O)N(=O)=O)CC(=O)[OH:16],O,0,0,3.502,['3.502'],['hunt_et_al']
c1cc(cnc1)CC[NH+:14]2CCCCC2,O,0,0,8.81,['8.81'],['hunt_et_al']
CC1=CCCC[N@H+:8]1C,O,0,0,11.38,['11.38'],['hunt_et_al']
c1cc(cn(=O)c1)C(=O)[OH:10],O,0,0,2.79,['2.79'],['hunt_et_al']
COc1ccccc1CCC(=O)[OH:12],O,0,0,4.804,['4.804'],['hunt_et_al']
COc1cccc(c1)CCC(=O)[OH:12],O,0,0,4.65,['4.65'],['hunt_et_al']
CCCC[C@@H]1CCC[N@H+:10]1C,O,0,0,10.2,['10.2'],['hunt_et_al']
CC[N@@H+:8]1CCC[C@H]1C,O,0,0,10.56,['10.56'],['hunt_et_al']
Cc1ccc(cc1)[C@@H]2CCC[NH2+:12]2,O,0,0,9.95,['9.95'],['hunt_et_al']
c1ccc(cc1)CCSCC(=O)[OH:12],O,0,0,3.79,['3.79'],['hunt_et_al']
C1C=C[C@@H](S1)C[NH3+:6],O,0,0,8.92,['8.92'],['hunt_et_al']
c1cc(cc(c1)Cl)[C@H](C(=O)[OH:10])O,O,0,0,3.24,['3.24'],['hunt_et_al']
c1ccc(cc1)C(CC[NH+:20]2CCOCC2)c3ccccc3,O,0,0,7.2,['7.2'],['hunt_et_al']
C[NH+:6]1CCOCC1,O,0,0,7.4,['7.4'],['hunt_et_al']
c1cnc(cn1)[OH:7],O,0,0,8.25,['8.25'],['hunt_et_al']
c1ccc2c(c1)cccc2C(=O)CCC(=O)[OH:17],O,0,0,4.48,['4.48'],['hunt_et_al']
Cc1cc(nc([nH+:12]1)Nc2ccc(cc2)Cl)N,O,0,0,6.6,['6.6'],['hunt_et_al']
CCc1c[nH+:8]c(nc1)NC,O,0,0,4.29,['4.29'],['hunt_et_al']
Cc1ccnc(n1)[OH:8],O,0,0,9.9,['9.9'],['hunt_et_al']
Cc1ccc(cc1C)[OH:9],O,0,0,10.32,['10.32'],['hunt_et_al']
c1ccc2c[nH+:10]c(cc2c1)N,O,0,0,5.03,['5.03'],['hunt_et_al']
c1cc2cnccc2c(c1)[OH:11],O,0,0,8.47,['8.47'],['hunt_et_al']
c1ccc2c(c1)ccc([nH+:10]2)N,O,0,0,7.3,['7.3'],['hunt_et_al']
c1ccc(cc1)c2cccc(c2)[OH:13],O,0,0,9.64,['9.64'],['hunt_et_al']
c1ccc2c(c1)cc(cn2)[OH:11],O,0,0,8.08,['8.08'],['hunt_et_al']
Cc1cc2cccc(c2nc1)[OH:12],O,0,0,9.75,['9.75'],['hunt_et_al']
c1cc2ccc(c(c2nc1)[OH:12])C(F)(F)F,O,0,0,9.08,['9.08'],['hunt_et_al']
c1cc(cc(c1)I)[OH:7],O,0,0,8.88,['8.88'],['hunt_et_al']
c1ccc2c(c1)cnnc2[OH:11],O,0,0,11.99,['11.99'],['hunt_et_al']
c1cc2cncnc2cc1[OH:11],O,0,0,7.39,['7.39'],['hunt_et_al']
c1ccc(c(c1)N(=O)=O)[OH:10],O,0,0,7.21,['7.21'],['hunt_et_al']
c1cc(cc(c1)[OH:10])N(=O)=O,O,0,0,8.38,['8.38'],['hunt_et_al']
c1ccc2c(c1)C(=O)c3cccc(c3C2=O)S(=O)(=O)[OH:19],O,0,0,0.268,['0.268'],['hunt_et_al']
CCO[P@](=O)(C)OCC[NH+:8](C)C,O,0,0,8.14,['8.14'],['hunt_et_al']
c1cc(ccc1[C@@H]2C[C@H]2[NH3+:10])Cl,O,0,0,8.11,['8.11'],['hunt_et_al']
COc1ccc(cc1)[C@@H]2C[C@H]2[NH3+:11],O,0,0,8.32,['8.32'],['hunt_et_al']
c1cc2cc(cc3c2c(c1)CC3)[NH3+:13],O,0,0,4.5,['4.5'],['hunt_et_al']
c1ccc(cc1)/C=C/c2ccc(cc2)[NH3+:15],O,0,0,4.18,['4.18'],['hunt_et_al']
C[NH+:6](C)CCCO,O,0,0,9.3,['9.3'],['hunt_et_al']
CC(C)(C=C)[NH2+:11]C(C)(C)C#C,O,0,0,8.2,['8.2'],['hunt_et_al']
C(C(=C(Cl)Cl)Cl)[NH3+:4],O,0,0,7.28,['7.28'],['hunt_et_al']
CC1=C(C([NH+:12](C1(C)C)C)(C)C)C,O,0,0,10.8,['10.8'],['hunt_et_al']
CC1=C(C([NH2+:11]C1(C)C)(C)C)C,O,0,0,10.5,['10.5'],['hunt_et_al']
CC(=O)SCC[NH+:7](C)C,O,0,0,8.27,['8.27'],['hunt_et_al']
C(C(Cl)Cl)[NH3+:3],O,0,0,7.25,['7.25'],['hunt_et_al']
C[NH+:5](C)CC(F)(F)F,O,0,0,4.8,['4.8'],['hunt_et_al']
C[NH2+:4]CC(F)(F)F,O,0,0,6.1,['6.1'],['hunt_et_al']
C[C@@H](c1ccc(cc1)C(C)C)[NH3+:12],O,0,0,9.42,['9.42'],['hunt_et_al']
CCCc1ccc(cc1)[C@H](C)[NH3+:12],O,0,0,9.45,['9.45'],['hunt_et_al']
COc1ccc(cc1OC)[C@H](C[NH3+:11])O,O,0,0,9.18,['9.18'],['hunt_et_al']
CCCC[NH2+:13]C[C@@H](c1ccc(cc1)O)O,O,0,0,9.034,['9.034'],['hunt_et_al']
CCOC(=O)c1ccc(cc1)[C@H](C[NH2+:15]C(C)C)O,O,0,0,9.43,['9.43'],['hunt_et_al']
CC(C)[NH2+:12]C[C@@H](c1ccccc1F)O,O,0,0,9.41,['9.41'],['hunt_et_al']
CC(C)[NH2+:12]C[C@@H](c1cccc(c1)I)O,O,0,0,9.36,['9.36'],['hunt_et_al']
CC(C)[NH2+:13]C[C@@H](c1ccc(cc1)C(F)(F)F)O,O,0,0,9.34,['9.34'],['hunt_et_al']
C[NH2+:12]C[C@@H](c1ccc(c(c1)OC)OC)O,O,0,0,9.51,['9.51'],['hunt_et_al']
c1ccc(cc1)C[NH2+:15]Cc2ccccc2,O,0,0,8.52,['8.52'],['hunt_et_al']
c1cc(cc(c1)F)C[NH2+:14]c2ccc(cc2N(=O)=O)N(=O)=O,O,0,0,-5.46,['-5.46'],['hunt_et_al']
CCOc1ccc(cc1)C[NH+:14](CCO)CCO,O,0,0,7.6,['7.6'],['hunt_et_al']
c1cc(cc(c1)N(=O)=O)C[NH3+:8],O,0,0,8.65,['8.65'],['hunt_et_al']
Cc1c(ccc2c1-c3ccccc3C2)[NH3+:15],O,0,0,4.83,['4.83'],['hunt_et_al']
COc1cc[nH+:7]c(c1)N,O,0,0,7.62,['7.62'],['hunt_et_al']
Cc1c(nc(o1)C)C(=O)[OH:10],O,0,0,4.17,['4.17'],['hunt_et_al']
Cc1nc(co1)C(=O)[OH:9],O,0,0,3.59,['3.59'],['hunt_et_al']
Cc1c(ocn1)C(=O)[OH:9],O,0,0,2.88,['2.88'],['hunt_et_al']
Cc1c(c(nc(n1)[OH:12])C)CC=C,O,0,0,10.74,['10.74'],['hunt_et_al']
Cc1c(c[nH+:6]c(n1)N)Br,O,0,0,2.61,['2.61'],['hunt_et_al']
c1cc(ccc1c2c[nH+:11]c(nc2)N)F,O,0,0,3.25,['3.25'],['hunt_et_al']
Cc1c(ncnc1SC)[OH:9],O,0,0,9.12,['9.12'],['hunt_et_al']
Cc1ccc(cc1)c2cnc(nc2)[OH:14],O,0,0,8.74,['8.74'],['hunt_et_al']
CCC1=[NH+:7]C[C@@H](S1)C,O,0,0,5.231,['5.231'],['hunt_et_al']
CC1=[NH+:7]C(CS1)(C)C,O,0,0,5.39,['5.39'],['hunt_et_al']
CC(C)c1cc(c(=O)c(cc1Br)Br)[OH:12],O,0,0,4.28,['4.28'],['hunt_et_al']
CC(C)c1c(cc(c(=O)c(c1Br)[OH:12])Br)Br,O,0,0,6,['6.0'],['hunt_et_al']
C[C@H]1C[C@@H]([C@H]2CCCC[C@H]2[NH2+:13]1)C(=O)OC,O,0,0,9.9,['9.9'],['hunt_et_al']
C[C@H]1CC[C@@H]2CCCC[C@H]2[NH2+:11]1,O,0,0,10.91,['10.91'],['hunt_et_al']
C[C@H](CN1c2ccccc2Sc3c1cccc3)[NH+:19](C)C,O,0,0,9.1,['9.1'],['hunt_et_al']
CCOc1ccc(cc1)[NH:11]C(=O)C,O,0,0,11.8,['11.8'],['hunt_et_al']
c1cc(c(cc1Br)N(=O)=O)[NH3+:7],O,0,0,-1.05,['-1.05'],['hunt_et_al']
c1cc(c(cc1Br)[NH3+:7])N(=O)=O,O,0,0,-1.48,['-1.48'],['hunt_et_al']
c1cc(c(cc1[NH3+:7])Cl)N(=O)=O,O,0,0,0.26,['0.26'],['hunt_et_al']
c1c(cc(cc1I)I)[NH3+:7],O,0,0,2.368,['2.368'],['hunt_et_al']
CCOC(=O)COc1ccc(cc1)[NH3+:11],O,0,0,5.09,['5.09'],['hunt_et_al']
CCOC(=O)c1cc(ccc1N(=O)=O)[NH3+:10],O,0,0,-0.11,['-0.11'],['hunt_et_al']
CC[NH2+:10]c1cccc(c1)C,O,0,0,5.25,['5.25'],['hunt_et_al']
CC[N@@H+:17](CC[N+]1(CCCCC1)C)c2ccccc2,O,0,0,2.77,['2.77'],['hunt_et_al']
CC[NH2+:9]c1ccccc1N(=O)=O,O,0,0,-0.21,['-0.21'],['hunt_et_al']
CC[NH2+:9]c1ccc(cc1)N(=O)=O,O,0,0,0.94,['0.94'],['hunt_et_al']
CCSc1ccc(cc1)[NH3+:9],O,0,0,4,['4.0'],['hunt_et_al']
c1cc(c(cc1N(=O)=O)[NH3+:7])F,O,0,0,1.09,['1.09'],['hunt_et_al']
c1ccc(c(c1)C=O)[NH3+:8],O,0,0,1.36,['1.36'],['hunt_et_al']
CC(C)[NH2+:10]c1ccccc1N(=O)=O,O,0,0,0.09,['0.09'],['hunt_et_al']
C[NH2+:8]c1ccccc1N(=O)=O,O,0,0,-0.62,['-0.62'],['hunt_et_al']
CS(=O)(=O)c1ccccc1[NH3+:8],O,0,0,0.33,['0.33'],['hunt_et_al']
c1cc(cc(c1)OC(C(F)(F)F)(F)F)[NH3+:9],O,0,0,3.24,['3.24'],['hunt_et_al']
c1ccc(cc1)Sc2ccc(cc2)[NH3+:13],O,0,0,3.8,['3.8'],['hunt_et_al']
Cc1ccc(c(c1)C)[NH+:11](C)C,O,0,0,5.28,['5.28'],['hunt_et_al']
c1cc(ccc1[NH3+:8])S(=O)(=O)C(F)(F)F,O,0,0,-0.01,['-0.01'],['hunt_et_al']
Cc1ccc[nH+:7]c1N,O,0,0,7.24,['7.24'],['hunt_et_al']
CC(C)(C)[P@@H](=O)[OH:6],O,0,0,4.24,['4.24'],['hunt_et_al']
C(#N)C(=O)[OH:5],O,0,0,2.46,['2.46'],['hunt_et_al']
c1cc(c(cc1C(=O)[OH:11])O)O,O,0,0,4.48,['4.48'],['hunt_et_al']
CCOCC[NH3+:5],O,0,0,8,['8.0'],['hunt_et_al']
CCOc1ccccc1[OH:9],O,0,0,10.11,['10.11'],['hunt_et_al']
C(CCC(=S)O)CC(=S)[OH:7],O,0,0,3.382,['3.382'],['hunt_et_al']
C(CCC(=S)[O-])CC(=S)[OH:7],O,0,0,4.352,['4.352'],['hunt_et_al']
c1c(cc(c(c1N(=O)=O)[NH:13]c2c(cc(cc2N(=O)=O)N(=O)=O)N(=O)=O)N(=O)=O)N(=O)=O,O,0,0,5.42,['5.42'],['hunt_et_al']
c1cc(cc(c1)[OH:9])C=O,O,0,0,9,['9.0'],['hunt_et_al']
CC[C@H](C(=O)[OH:6])O,O,0,0,3.68,['3.68'],['hunt_et_al']
CCCc1ccccc1[OH:10],O,0,0,10.5,['10.5'],['hunt_et_al']
c1cc2c(c(c1)[OH:10])CCC2,O,0,0,10.32,['10.32'],['hunt_et_al']
CC[C@@H](C(=O)[OH:6])S,O,0,0,3.53,['3.53'],['hunt_et_al']
C([C@@H](C(=O)[OH:5])O)O,O,0,0,3.52,['3.52'],['hunt_et_al']
COc1ccc(cc1)[P@@H](=O)[OH:9],O,0,0,2.35,['2.35'],['hunt_et_al']
Cc1cccc(n1)C[NH2+:10]C,O,0,0,9.15,['9.15'],['hunt_et_al']
CCC[P@@H](=O)[OH:5],O,0,0,3.46,['3.46'],['hunt_et_al']
C(C(=O)[OH:4])O,O,0,0,3.83,['3.83'],['hunt_et_al']
c1cc(c(c(c1)O)C(=O)[OH:11])O,O,0,0,1.1,['1.1'],['hunt_et_al']
COCC[NH3+:4],O,0,0,9.61,['9.61'],['hunt_et_al']
c1cncnc1[OH:7],O,0,0,8.63,['8.63'],['hunt_et_al']
C(C(Cl)(Cl)Cl)[NH3+:3],O,0,0,5.47,['5.47'],['hunt_et_al']
c1cc(ccc1C(=O)[OH:10])O,O,0,0,4.54,['4.54'],['hunt_et_al']
CCC(=O)O[C@H](C)C[NH+:9](C)C,O,0,0,8.26,['8.26'],['hunt_et_al']
Cc1c(nc2cnccc2n1)[OH:12],O,0,0,8.33,['8.33'],['hunt_et_al']
c1cc(cnc1)[OH:7],O,0,0,8.72,['8.72'],['hunt_et_al']
c1ccc2c(c1)cc3cccc(c3n2)[OH:15],O,0,0,9.75,['9.75'],['hunt_et_al']
COc1ccc(cc1)C[NH3+:9],O,0,0,9.47,['9.47'],['hunt_et_al']
C(C(CO)(CO)[NH3+:5])O,O,0,0,8.08,['8.08'],['hunt_et_al']
CC(C)[NH2+:12]C[C@@H](c1ccc(cc1)O)O,O,0,0,9.57,['9.57'],['hunt_et_al']
C(CO)[NH2+:7]C(CO)(CO)CO,O,0,0,7.83,['7.83'],['hunt_et_al']
CSc1ccc(cc1)[OH:8],O,0,0,9.53,['9.53'],['hunt_et_al']
C/C=C(/C)\C(=O)[OH:7],O,0,0,4.29,['4.29'],['hunt_et_al']
COC(=O)C(CCC(=O)[OH:21])(c1ccccc1)c2ccccc2,O,0,0,4.66,['4.66'],['hunt_et_al']
c1ccc(cc1)CC(=O)[OH:10],O,0,0,4.31,['4.31'],['hunt_et_al']
c1ccc(cc1)C(=O)[OH:9],O,0,0,3.98,['3.98'],['hunt_et_al']
CCC(=O)[OH:5],O,0,0,4.874,['4.874'],['hunt_et_al']
C[NH+:10](C)Cc1ccccc1,O,0,0,8.91,['8.91'],['hunt_et_al']
CCOCC(=O)[OH:6],O,0,0,3.84,['3.84'],['hunt_et_al']
C(C(Cl)(Cl)Cl)[OH:3],O,0,0,12.24,['12.24'],['hunt_et_al']
c1cc(c(c(c1Cl)C(=O)[OH:9])Cl)Cl,O,0,0,1.5,['1.5'],['hunt_et_al']
c1c(c(cc(c1Cl)Cl)Cl)OCC(=O)[OH:10],O,0,0,2.85,['2.85'],['hunt_et_al']
CC#CC[OH:5],O,0,0,14.16,['14.16'],['hunt_et_al']
C(C[OH:4])C(F)F,O,0,0,12.74,['12.74'],['hunt_et_al']
c1cc(ccc1N(=O)=O)[SH:10],O,0,0,4.6,['4.6'],['hunt_et_al']
CCCC[SH:5],O,0,0,10.66,['10.66'],['hunt_et_al']
Cc1cnc(cn1)C(=O)NCCc2ccc(cc2)S(=O)(=O)[NH:26]C(=O)NC3CCCCC3,O,0,0,5.25,['5.25'],['hunt_et_al']
c1cc(c(c2c1nsn2)NC3=[NH+:12]CCN3)Cl,O,0,0,7.52,['7.52'],['hunt_et_al']
CCC[NH2+:15][C@@H](C)C(=O)Nc1ccccc1C,O,0,0,7.9,['7.9'],['hunt_et_al']
CCCc1nc(c(n1Cc2ccc(cc2)c3ccccc3c4[nH:34]nnn4)C(=O)OCc5c(oc(=O)o5)C)C(C)(C)O,O,0,0,4.29,['4.29'],['hunt_et_al']
CCCc1[nH+:30]c(c(n1Cc2ccc(cc2)c3ccccc3c4[n-]nnn4)C(=O)OCc5c(oc(=O)o5)C)C(C)(C)O,O,0,0,6.05,['6.05'],['hunt_et_al']
Cc1nnc(n1C2C[C@H]3CC[C@@H](C2)[NH+:33]3CC[C@@H](c4ccccc4)NC(=O)C5CCC(CC5)(F)F)C(C)C,O,0,0,9.66,['9.66'],['hunt_et_al']
C[C@H]1C[NH+:9]=C(c2c(ccs2)O1)N,O,0,0,11,['11.0'],['hunt_et_al']
CCc1cc(cc[nH+:9]1)C(=S)N,O,0,0,4.4,['4.4'],['hunt_et_al']
C[C@H](CS)C(=O)N1CCC[C@H]1C(=O)[OH:13],O,0,0,3.45,['3.45'],['hunt_et_al']
C[C@@H]([C@H](c1ccccc1)O)[NH2+:11]C,O,0,0,9.86,['9.86'],['hunt_et_al']
c1cc(c(c2c1C[C@@H](CC2)[NH3+:11])O)O,O,0,0,10.5,['10.5'],['hunt_et_al']
c1cc(c(c2c1C[C@@H](CC2)[NH3+])O)[OH:12],O,0,0,8.9,['8.9'],['hunt_et_al']
c1cc(c(c2c1C[C@@H](CC2)[NH3+])[OH:13])O,O,0,0,8.9,['8.9'],['hunt_et_al']
Cc1cc(ccc1OCC(=O)[OH:31])C[N@@]2Cc3ccccc3C[C@H]2C(=O)Nc4ccc(cc4Cl)Cl,O,0,0,3.1,['3.1'],['hunt_et_al']
Cc1cc(ccc1OCC(=O)[O-])C[N@@H+:27]2Cc3ccccc3C[C@H]2C(=O)Nc4ccc(cc4Cl)Cl,O,0,0,6.2,['6.2'],['hunt_et_al']
CCOC(=O)N1CCC2(CC1)Nc3ccsc3C(=[NH+:14]2)N,O,0,0,10.47,['10.47'],['hunt_et_al']
c1ccc(cc1)[C@@H]2Nc3ccccc3C(=[NH+:15]2)N,O,0,0,9.83,['9.83'],['hunt_et_al']
C[C@H](c1ccc(cc1)OS(=O)(=O)C(F)(F)F)C(=O)[NH:12]S(=O)(=O)C,O,0,0,3.1,['3.1'],['hunt_et_al']
CCC(CC)NC(=O)c1cn(nc1[NH:25]S(=O)(=O)c2ccc(cc2)C)c3ccccc3,O,0,0,5.3,['5.3'],['hunt_et_al']
CC(C)(C)c1cc(n(n1)c2ccc(c(c2)Cl)[OH:44])NC(=O)NCc3ccccc3Sc4ccc5nnc(n5c4)c6ccccc6SCCO,O,0,0,7.17,['7.17'],['hunt_et_al']
CC[C@@H](C(=O)N[C@@H](Cc1ccc(cc1)c2ccccc2)C#N)[NH3+:21],O,0,0,7.3,['7.3'],['hunt_et_al']
C[NH+:31]1CCN(CC1)c2ccc(cc2)c3nc4cc(c(cc4c(n3)NCCN5CCOCC5)OC)OC,O,0,0,7.93,['7.93'],['hunt_et_al']
c1ccc(cc1)C[C@@H](C(=O)[O-])N2CCC(CC2)C[NH+:27]3CCC(CC3)Oc4ccc(c(c4)Cl)Cl,O,0,0,9.25,['9.25'],['hunt_et_al']
c1ccc(cc1)C[C@@H](C(=O)[O-])[NH+:28]2CCC(CC2)CN3CCC(CC3)Oc4ccc(c(c4)Cl)Cl,O,0,0,9.25,['9.25'],['hunt_et_al']
c1ccc(cc1)C[C@@H](C(=O)[OH:30])N2CCC(CC2)C[NH+]3CCC(CC3)Oc4ccc(c(c4)Cl)Cl,O,0,0,3.1,['3.1'],['hunt_et_al']
c1ccc(cc1)C[C@@H](C(=O)[OH:30])[NH+]2CCC(CC2)CN3CCC(CC3)Oc4ccc(c(c4)Cl)Cl,O,0,0,3.1,['3.1'],['hunt_et_al']
c1cc(ccc1S(=O)(=O)[N-]C(=O)N2CCC(CC2)[NH+:25]3CCC(CC3)Oc4ccc(c(c4)Cl)Cl)Cl,O,0,0,8.2,['8.2'],['hunt_et_al']
c1cc(ccc1S(=O)(=O)[NH:26]C(=O)N2CCC(CC2)[NH+]3CCC(CC3)Oc4ccc(c(c4)Cl)Cl)Cl,O,0,0,2.5,['2.5'],['hunt_et_al']
c1cc(c(cc1OC2CC[NH+:23](CC2)C[C@@H](CNC(=O)c3c[nH]c(=O)cc3C(F)(F)F)O)Cl)Cl,O,0,0,7.7,['7.7'],['hunt_et_al']
c1cc(c(cc1OC2CC[NH+](CC2)C[C@@H](CNC(=O)c3c[nH:22]c(=O)cc3C(F)(F)F)O)Cl)Cl,O,0,0,8.3,['8.3'],['hunt_et_al']
CCc1[nH]c2c(n1)c(cc([nH+:12]2)C)C,O,0,0,5.5,['5.5'],['hunt_et_al']
c1cc(c(cc1CC2CC[NH2+:25]CC2)C(=O)NCC34CC5CC(C3)CC(C5)C4)Cl,O,0,0,10.1,['10.1'],['hunt_et_al']
c1ccc(cc1)C[NH+:20]2CCN(CC2)C(=O)c3ccccc3,O,0,0,6.2,['6.2'],['hunt_et_al']
c1cc(ccc1c2c(c3cc(ccc3[nH]2)C#N)CCCC(=O)[NH:23]S(=O)(=O)N)F,O,0,0,5.9,['5.9'],['hunt_et_al']
CC(C)[NH2+:17]C[C@H](COc1cccc2c1cccc2)O,O,0,0,9.45,['9.45'],['hunt_et_al']
c1ccc2c(c1)[nH]c(n2)SCc3cccc[nH+:14]3,O,0,0,4.4,['4.4'],['hunt_et_al']
CCc1[nH]cc[nH+:6]1,O,0,0,7.8,['7.8'],['hunt_et_al']
CCOC(=O)N1CCC(CC1)c2cc(=O)n([nH:18]2)c3ccccc3,O,0,0,6.8,['6.8'],['hunt_et_al']
c1cc(oc1)[C@@H]2Nc3c(ccc(c3C(=[NH+:13]2)N)F)F,O,0,0,8.2,['8.2'],['hunt_et_al']
CN(C)S(=O)(=O)[NH:24]C(=O)CCCc1c2cc(ccc2[nH]c1c3ccc(cc3)F)C#N,O,0,0,5.5,['5.5'],['hunt_et_al']
Cc1ccc(cc1)S(=O)(=O)[NH:18]C(=O)NN2C[C@H]3CCC[C@H]3C2,O,0,0,5.98,['5.98'],['hunt_et_al']