Solute SMILES,Solvent SMILES,Solute CAS,Solute IUPAC,pKa (avg),pKa (all),Source (all)
CC1([C@@H](N2[C@H](S1)[C@@H](C2=O)NC(=O)[C@@H](c3ccccc3)NC(=O)N4CCNC4=O)C(=O)[OH:31])C,O,0,0,2.41,['2.41'],['hunt_et_al']
CC\1=C(c2cc(ccc2/C1=C\c3ccc(cc3)[S@@](=O)C)F)CC(=O)[OH:23],O,0,0,3.9,['3.9'],['hunt_et_al']
Cn1c(nc(=O)c(n1)O)SCC2=C(N3[C@@H]([C@@H](C3=O)NC(=O)/C(=N\OC)/c4csc(n4)N)SC2)C(=O)[OH:32],O,0,0,2.7,['2.7'],['hunt_et_al']
CC(=O)OCC1=C(N2[C@@H]([C@@H](C2=O)NC(=O)/C(=N/OC)/c3csc(n3)N)SC1)C(=O)[OH:26],O,0,0,3.35,['3.35'],['hunt_et_al']
C[NH+:20](C)CC/C=C/1\c2ccccc2COc3c1cccc3,O,0,0,8,['8.0'],['hunt_et_al']
c1ccc(cc1)C(=O)N2CC[NH+:23](CC2)Cc3cc(ccc3OCC(=O)O)C(F)(F)F,O,0,0,6.9,['6.9'],['hunt_et_al']
c1ccc(cc1)S(=O)(=O)C2CC[NH+:21](CC2)Cc3cc(ccc3OCC(=O)O)Cl,O,0,0,7.8,['7.8'],['hunt_et_al']
c1ccc(cc1)S(=O)(=O)C2CC[NH+:21](CC2)Cc3cc(ccc3OCC(=O)[O-])Cl,O,0,0,7.8,['7.8'],['hunt_et_al']
CC(C)(C)c1ccc(cc1)[C@H](CCC[NH+:33]2CCC(CC2)C(c3ccccc3)(c4ccccc4)O)O,O,0,0,8.8,['8.8'],['hunt_et_al']
CC(=O)OCC1=C(N2[C@@H]([C@@H](C2=O)NC(=O)/C(=N\OC)/c3csc(n3)N)SC1)C(=O)[OH:26],O,0,0,3.75,['3.75'],['hunt_et_al']
c1ccc(cc1)[C@@H](CC[NH3+:18])Oc2cc(ccc2C#N)Cl,O,0,0,10.3,['10.3'],['hunt_et_al']
Cn1c2c(c(=O)n(c1=O)C)n(cn2)CC[NH+:16](C)C,O,0,0,7.5,['7.5'],['hunt_et_al']
CC1([C@@H](N2[C@H](S1)[C@@H](C2=O)NC(=O)[C@@H](c3ccccc3)N)C(=O)[OH:23])C,O,0,0,2.51,['2.51'],['hunt_et_al']
CC1([C@@H](N2[C@H](S1)[C@@H](C2=O)NC(=O)[C@@H](c3ccccc3)[NH3+:18])C(=O)O)C,O,0,0,7.7,['7.7'],['hunt_et_al']
CC1([C@@H](N2[C@H](S1)[C@@H](C2=O)NC(=O)[C@@H](c3ccccc3)[NH3+:18])C(=O)[O-])C,O,0,0,7.7,['7.7'],['hunt_et_al']
CC1([C@@H](N2[C@H](S1)[C@@H](C2=O)NC(=O)[C@@H](c3ccccc3)[NH3+])C(=O)[OH:23])C,O,0,0,2.51,['2.51'],['hunt_et_al']
CCOC(=O)N1CCC2(CC1)Nc3cccc(c3C(=[NH+:16]2)N)F,O,0,0,9.1,['9.1'],['hunt_et_al']
c1ccc(cc1)[C@H](C[NH3+:15])Oc2cc(ccc2Cl)Cl,O,0,0,8.5,['8.5'],['hunt_et_al']
c1cc(c[nH+:9]c1)/C=C/C(=O)O,O,0,0,4.4,['4.4'],['hunt_et_al']
c1cc(c[nH+]c1)/C=C/C(=O)[OH:11],O,0,0,4.4,['4.4'],['hunt_et_al']
CCS(=O)(=O)c1ccc(c(c1)Cl)c2cc(ccc2OCC(=O)[OH:20])Cl,O,0,0,3.4,['3.4'],['hunt_et_al']
CC[C@H](C(=O)[OH:24])Oc1ccc(cc1c2ccc(cc2C)S(=O)(=O)CC)C(F)(F)F,O,0,0,3.4,['3.4'],['hunt_et_al']
CC[C@H](CC[NH2+:15]C)Oc1cc(ccc1C#N)Cl,O,0,0,10.1,['10.1'],['hunt_et_al']
C[NH2+:19]CC[C@H](c1ccccc1)Oc2cc(ccc2C#N)Cl,O,0,0,9.9,['9.9'],['hunt_et_al']
c1ccc(cc1)[C@@H](CC[NH3+:18])Oc2cc(c(cc2C#N)F)Cl,O,0,0,9.6,['9.6'],['hunt_et_al']
c1cc(nc(c1C#N)O[C@H](CC[NH3+:17])c2ccno2)C(F)(F)F,O,0,0,9.5,['9.5'],['hunt_et_al']
C[NH2+:20]CC[C@H](c1ccccc1)Oc2cc(ccc2C#N)C(F)(F)F,O,0,0,10.4,['10.4'],['hunt_et_al']
C[NH2+:20]CC[C@H](c1ccccc1)Oc2cc(ccc2C#N)OC,O,0,0,10.2,['10.2'],['hunt_et_al']
CN/C(=C\N(=O)=O)/NCCSCc1ccc(o1)C[NH+:17](C)C,O,0,0,8.47,['8.47'],['hunt_et_al']
CN(C)S(=O)(=O)c1ccc(cc1)CC(=O)N(C)C2CC[NH+:32](CC2)CCC(c3ccccc3)c4ccccc4,O,0,0,8.1,['8.1'],['hunt_et_al']
CC1=NS(=O)(=O)c2cc(ccc2[NH:10]1)Cl,O,0,0,8.42,['8.42'],['hunt_et_al']
Cc1cc(nn1C[C@@H](C[NH3+:25])O)c2ccc(c(c2)C(=O)NCC3(CCCCCC3)O)Cl,O,0,0,8.6,['8.6'],['hunt_et_al']
c1cc(oc1)Cn2cc(c(=O)[nH:12]c2=O)C#N,O,0,0,6.1,['6.1'],['hunt_et_al']
Cn1c2c(c(=O)n(c1=O)C)nc[nH:9]2,O,0,0,8.51,['8.51'],['hunt_et_al']
C[C@H](c1ccc(cc1)CC(C)C)C(=O)[NH:15]S(=O)(=O)C,O,0,0,4.7,['4.7'],['hunt_et_al']
CCC(CC)NC(=O)c1cnn(c1[NH:23]S(=O)(=O)C2CCCC2)c3ccccc3,O,0,0,4.5,['4.5'],['hunt_et_al']
CCC(CC)NC(=O)c1c(nn(c1[NH:26]S(=O)(=O)c2ccc(cc2)C)c3ccccc3)C,O,0,0,4.2,['4.2'],['hunt_et_al']
Cc1ccc(cc1)S(=O)(=O)[NH:27]c2c(c(nn2c3ccccc3)C(F)(F)F)C(=O)N[C@@H](C)C(C)(C)C,O,0,0,3.8,['3.8'],['hunt_et_al']
Cc1c(c(n(n1)c2ccc(cc2)F)[NH:28]S(=O)(=O)c3ccc(cc3)C#N)C(=O)N[C@@H](C)C(C)(C)C,O,0,0,3,['3.0'],['hunt_et_al']
Cc1c(c(n(n1)c2ccc(cc2)F)[NH:27]S(=O)(=O)c3ccc(cc3)C(F)(F)F)C(=O)N[C@@H](C)C(C)(C)C,O,0,0,3.4,['3.4'],['hunt_et_al']
CCC(CC)NC(=O)c1c(nn(c1[NH:23]S(=O)(=O)c2ccc(cc2)C)C(C)C)C,O,0,0,4.7,['4.7'],['hunt_et_al']
Cc1ccc(cc1)S(=O)(=O)[NH:24]c2c(c(nn2C(C)C)C)C(=O)N[C@@H](C)C(C)(C)C,O,0,0,4.5,['4.5'],['hunt_et_al']
Cc1ccc(cc1)S(=O)(=O)[NH:25]c2c(c(nn2C(C)(C)C)C)C(=O)N[C@@H](C)C(C)(C)C,O,0,0,5.5,['5.5'],['hunt_et_al']
c1cc2c(nc1)nc(nc2NCc3ccc(cc3Cl)Cl)N4CCN(CC4)C(=O)[C@H]5CCCC[NH2+:28]5,O,0,0,9,['9.0'],['hunt_et_al']
c1ccc(c(c1)Nc2nnc(o2)C(=O)[NH:24]c3ccc(c(c3)F)N4CCOCC4)F,O,0,0,8.61,['8.61'],['hunt_et_al']
c1ccc(c(c1)Nc2nnc(o2)C(=O)Nc3ccc(c(c3)F)[NH+:22]4CCOCC4)F,O,0,0,6.17,['6.17'],['hunt_et_al']
c1ccc2c(c1)N3CC[NH+:18]=C3N2CC(=O)c4ccc(cc4)Cl,O,0,0,9.1,['9.1'],['hunt_et_al']
Cc1cccnc1C[S@](=O)c2[nH:20]c3cc(c(cc3n2)C(=O)OC)C,O,0,0,8.1,['8.1'],['hunt_et_al']
Cc1ccc[nH+:18]c1C[S@](=O)c2[nH]c3cc(c(cc3n2)C(=O)OC)C,O,0,0,3.5,['3.5'],['hunt_et_al']
COc1cc2c(cc1NC(=O)/C=C/C[NH+:27]3CCCCC3)c(ncn2)Nc4ccc(c(c4)Cl)F,O,0,0,9.36,['9.36'],['hunt_et_al']
c1cc(ccc1C[C@@H](C(=O)O)N2CCC(CC2)C[NH+:29]3CCC(CC3)Oc4ccc(c(c4)Cl)Cl)C#N,O,0,0,8.9,['8.9'],['hunt_et_al']
c1cc(ccc1C[C@@H](C(=O)O)[NH+:30]2CCC(CC2)CN3CCC(CC3)Oc4ccc(c(c4)Cl)Cl)C#N,O,0,0,8.9,['8.9'],['hunt_et_al']
c1cc(ccc1C[C@@H](C(=O)[O-])N2CCC(CC2)C[NH+:29]3CCC(CC3)Oc4ccc(c(c4)Cl)Cl)C#N,O,0,0,8.9,['8.9'],['hunt_et_al']
c1cc(ccc1C[C@@H](C(=O)[O-])[NH+:30]2CCC(CC2)CN3CCC(CC3)Oc4ccc(c(c4)Cl)Cl)C#N,O,0,0,8.9,['8.9'],['hunt_et_al']
Cc1ccccc1C[C@@H](C(=O)O)N2CCC(CC2)C[NH+:28]3CCC(CC3)Oc4ccc(c(c4)Cl)Cl,O,0,0,9.2,['9.2'],['hunt_et_al']
Cc1ccccc1C[C@@H](C(=O)O)[NH+:29]2CCC(CC2)CN3CCC(CC3)Oc4ccc(c(c4)Cl)Cl,O,0,0,9.2,['9.2'],['hunt_et_al']
Cc1ccccc1C[C@@H](C(=O)[O-])N2CCC(CC2)C[NH+:28]3CCC(CC3)Oc4ccc(c(c4)Cl)Cl,O,0,0,9.2,['9.2'],['hunt_et_al']
Cc1ccccc1C[C@@H](C(=O)[O-])[NH+:29]2CCC(CC2)CN3CCC(CC3)Oc4ccc(c(c4)Cl)Cl,O,0,0,9.2,['9.2'],['hunt_et_al']
c1ccc(cc1)[C@@H](C(=O)O)N2CCC(CC2)[NH+:25]3CCC(CC3)Oc4ccc(c(c4)Cl)Cl,O,0,0,9.1,['9.1'],['hunt_et_al']
c1ccc(cc1)[C@@H](C(=O)O)[NH+:26]2CCC(CC2)N3CCC(CC3)Oc4ccc(c(c4)Cl)Cl,O,0,0,9.1,['9.1'],['hunt_et_al']
c1ccc(cc1)[C@@H](C(=O)[O-])N2CCC(CC2)[NH+:25]3CCC(CC3)Oc4ccc(c(c4)Cl)Cl,O,0,0,9.1,['9.1'],['hunt_et_al']
c1ccc(cc1)[C@@H](C(=O)[O-])[NH+:26]2CCC(CC2)N3CCC(CC3)Oc4ccc(c(c4)Cl)Cl,O,0,0,9.1,['9.1'],['hunt_et_al']
c1ccc(cc1)[C@@H](C(=O)[OH:29])N2CCC(CC2)CN3CCC(CC3)Oc4ccc(c(c4)Cl)Cl,O,0,0,3,['3.0'],['hunt_et_al']
c1ccc(cc1)[C@@H](C(=O)O)N2CCC(CC2)C[NH+:26]3CCC(CC3)Oc4ccc(c(c4)Cl)Cl,O,0,0,9.6,['9.6'],['hunt_et_al']
c1ccc(cc1)[C@@H](C(=O)O)[NH+:27]2CCC(CC2)CN3CCC(CC3)Oc4ccc(c(c4)Cl)Cl,O,0,0,9.6,['9.6'],['hunt_et_al']
c1ccc(cc1)[C@@H](C(=O)[O-])N2CCC(CC2)C[NH+:26]3CCC(CC3)Oc4ccc(c(c4)Cl)Cl,O,0,0,9.6,['9.6'],['hunt_et_al']
c1ccc(cc1)[C@@H](C(=O)[O-])[NH+:27]2CCC(CC2)CN3CCC(CC3)Oc4ccc(c(c4)Cl)Cl,O,0,0,9.6,['9.6'],['hunt_et_al']
c1ccc(cc1)[C@@H](C(=O)[OH:29])N2CCC(CC2)C[NH+]3CCC(CC3)Oc4ccc(c(c4)Cl)Cl,O,0,0,3,['3.0'],['hunt_et_al']
c1ccc(cc1)C(=O)[NH:26]S(=O)(=O)N2CCC(CC2)N3CCC(CC3)Oc4ccc(c(c4)Cl)Cl,O,0,0,4.3,['4.3'],['hunt_et_al']
c1ccc(cc1)C(=O)NS(=O)(=O)N2CCC(CC2)[NH+:24]3CCC(CC3)Oc4ccc(c(c4)Cl)Cl,O,0,0,8.1,['8.1'],['hunt_et_al']
c1ccc(cc1)C(=O)[N-]S(=O)(=O)N2CCC(CC2)[NH+:24]3CCC(CC3)Oc4ccc(c(c4)Cl)Cl,O,0,0,8.1,['8.1'],['hunt_et_al']
c1ccc(cc1)C(=O)[NH:26]S(=O)(=O)N2CCC(CC2)[NH+]3CCC(CC3)Oc4ccc(c(c4)Cl)Cl,O,0,0,4.3,['4.3'],['hunt_et_al']
COc1cccc(c1)C(=O)NCC[NH+:22]2CCC(CC2)Oc3ccc(c(c3)Cl)Cl,O,0,0,7.4,['7.4'],['hunt_et_al']
c1cc(ccc1F)S(=O)(=O)[NH:26]C(=O)N2CCC(CC2)N3CCC(CC3)Oc4ccc(c(c4)Cl)Cl,O,0,0,3,['3.0'],['hunt_et_al']
c1cc(ccc1F)S(=O)(=O)NC(=O)N2CCC(CC2)[NH+:25]3CCC(CC3)Oc4ccc(c(c4)Cl)Cl,O,0,0,8.45,['8.45'],['hunt_et_al']
c1cc(ccc1F)S(=O)(=O)[N-]C(=O)N2CCC(CC2)[NH+:25]3CCC(CC3)Oc4ccc(c(c4)Cl)Cl,O,0,0,8.45,['8.45'],['hunt_et_al']
c1cc(ccc1F)S(=O)(=O)[NH:26]C(=O)N2CCC(CC2)[NH+]3CCC(CC3)Oc4ccc(c(c4)Cl)Cl,O,0,0,3,['3.0'],['hunt_et_al']
COc1ccc(cc1)S(=O)(=O)[NH:27]C(=O)N2CCC(CC2)N3CCC(CC3)Oc4ccc(c(c4)Cl)Cl,O,0,0,3.6,['3.6'],['hunt_et_al']
COc1ccc(cc1)S(=O)(=O)NC(=O)N2CCC(CC2)[NH+:26]3CCC(CC3)Oc4ccc(c(c4)Cl)Cl,O,0,0,8.3,['8.3'],['hunt_et_al']
COc1ccc(cc1)S(=O)(=O)[N-]C(=O)N2CCC(CC2)[NH+:26]3CCC(CC3)Oc4ccc(c(c4)Cl)Cl,O,0,0,8.3,['8.3'],['hunt_et_al']
COc1ccc(cc1)S(=O)(=O)[NH:27]C(=O)N2CCC(CC2)[NH+]3CCC(CC3)Oc4ccc(c(c4)Cl)Cl,O,0,0,3.6,['3.6'],['hunt_et_al']
CN(C)c1ccc(cc1)S(=O)(=O)[NH:28]C(=O)N2CCC(CC2)N3CCC(CC3)Oc4ccc(c(c4)Cl)Cl,O,0,0,6.1,['6.1'],['hunt_et_al']
CN(C)c1ccc(cc1)S(=O)(=O)[NH:28]C(=O)N2CCC(CC2)[NH+]3CCC(CC3)Oc4ccc(c(c4)Cl)Cl,O,0,0,6.1,['6.1'],['hunt_et_al']
Cc1ccccc1S(=O)(=O)[NH:27]C(=O)N2CCC(CC2)N3CCC(CC3)Oc4ccc(c(c4)Cl)Cl,O,0,0,3.4,['3.4'],['hunt_et_al']
Cc1ccccc1S(=O)(=O)[NH:27]C(=O)N2CCC(CC2)[NH+]3CCC(CC3)Oc4ccc(c(c4)Cl)Cl,O,0,0,3.4,['3.4'],['hunt_et_al']
CN(C)c1ccccc1S(=O)(=O)[NH:28]C(=O)N2CCC(CC2)N3CCC(CC3)Oc4ccc(c(c4)Cl)Cl,O,0,0,6.6,['6.6'],['hunt_et_al']
CN(C)c1ccccc1S(=O)(=O)NC(=O)N2CCC(CC2)[NH+:27]3CCC(CC3)Oc4ccc(c(c4)Cl)Cl,O,0,0,8.6,['8.6'],['hunt_et_al']
CN(C)c1ccccc1S(=O)(=O)[N-]C(=O)N2CCC(CC2)[NH+:27]3CCC(CC3)Oc4ccc(c(c4)Cl)Cl,O,0,0,8.6,['8.6'],['hunt_et_al']
CN(C)c1ccccc1S(=O)(=O)[NH:28]C(=O)N2CCC(CC2)[NH+]3CCC(CC3)Oc4ccc(c(c4)Cl)Cl,O,0,0,6.6,['6.6'],['hunt_et_al']
Cc1ccc(cc1)S(=O)(=O)[NH:28]C(=O)N2CCC(CC2)N3CCC(CC3)Oc4ccc(c(c4Cl)C)Cl,O,0,0,3.2,['3.2'],['hunt_et_al']
Cc1ccc(cc1)S(=O)(=O)NC(=O)N2CCC(CC2)[NH+:27]3CCC(CC3)Oc4ccc(c(c4Cl)C)Cl,O,0,0,8.7,['8.7'],['hunt_et_al']
Cc1ccc(cc1)S(=O)(=O)[N-]C(=O)N2CCC(CC2)[NH+:27]3CCC(CC3)Oc4ccc(c(c4Cl)C)Cl,O,0,0,8.7,['8.7'],['hunt_et_al']
Cc1ccc(cc1)S(=O)(=O)[NH:28]C(=O)N2CCC(CC2)[NH+]3CCC(CC3)Oc4ccc(c(c4Cl)C)Cl,O,0,0,3.2,['3.2'],['hunt_et_al']
c1cc(c(c(c1)F)Cl)NC(=O)Nc2ccc(c(c2[OH:25])S(=O)(=O)N3CCNCC3)Cl,O,0,0,5.9,['5.9'],['hunt_et_al']
c1cc(c(c(c1)F)Cl)NC(=O)Nc2ccc(c(c2O)S(=O)(=O)N3CC[NH2+:18]CC3)Cl,O,0,0,8.5,['8.5'],['hunt_et_al']
c1cc(c(c(c1)F)Cl)NC(=O)Nc2ccc(c(c2[O-])S(=O)(=O)N3CC[NH2+:18]CC3)Cl,O,0,0,8.5,['8.5'],['hunt_et_al']
c1cc(c(c(c1)F)Cl)NC(=O)Nc2ccc(c(c2[OH:25])S(=O)(=O)N3CC[NH2+]CC3)Cl,O,0,0,5.9,['5.9'],['hunt_et_al']
Cc1cc(ccc1OC)[C@@]2([NH+:26]=C(C(=N2)C)N)c3cccc(c3)c4cncnc4,O,0,0,5.83,['5.83'],['hunt_et_al']
CC1=N[C@]([NH+:21]=C1N)(c2cccc(c2)c3cc(cnc3)Cl)C4CC4,O,0,0,6.04,['6.04'],['hunt_et_al']
CCOC(=O)C1=C([NH2+:23]C(=C([C@H]1c2cccc3c2oc(cc3=O)C)C(=O)C)C)C,O,0,0,2.22,['2.22'],['hunt_et_al']
CCOc1c2c(c(c[nH+:23]1)C)NC(=C([C@H]2c3ccc(cc3OC)C#N)C(=O)N)C,O,0,0,4.68,['4.68'],['hunt_et_al']
c1cc(c(cc1OC2CCN(CC2)C[C@@H](CNC(=O)c3c[nH:21]nc3C(F)(F)F)O)Cl)Cl,O,0,0,7.6,['7.6'],['hunt_et_al']
c1cc(c(cc1OC2CC[NH+:22](CC2)C[C@@H](CNC(=O)c3c[nH]nc3C(F)(F)F)O)Cl)Cl,O,0,0,9.1,['9.1'],['hunt_et_al']
c1cc(c(cc1OC2CC[NH+](CC2)C[C@@H](CNC(=O)c3c[nH:21]nc3C(F)(F)F)O)Cl)Cl,O,0,0,7.6,['7.6'],['hunt_et_al']
Cn1cc(c(cc1=O)C(F)(F)F)C(=O)NC[C@H](C[NH+:24]2CCC(CC2)Oc3ccc(c(c3)Cl)Cl)O,O,0,0,7.8,['7.8'],['hunt_et_al']
c1ccc2c(c1)c(c[nH:25]c2=O)C(=O)NC[C@H](CN3CCC(CC3)Oc4ccc(c(c4)Cl)Cl)O,O,0,0,10.9,['10.9'],['hunt_et_al']
c1ccc2c(c1)c(c[nH]c2=O)C(=O)NC[C@H](C[NH+:26]3CCC(CC3)Oc4ccc(c(c4)Cl)Cl)O,O,0,0,7.7,['7.7'],['hunt_et_al']
c1ccc2c(c1)c(c[nH:25]c2=O)C(=O)NC[C@H](C[NH+]3CCC(CC3)Oc4ccc(c(c4)Cl)Cl)O,O,0,0,10.9,['10.9'],['hunt_et_al']
Cc1c(c(no1)c2c(cccc2Cl)F)C(=O)N[C@H]3[C@@H]4N(C3=O)[C@H](C(S4)(C)C)C(=O)[OH:27],O,0,0,2.46,['2.46'],['hunt_et_al']
CC(=O)O[C@@H]1[C@@H](Sc2ccccc2N(C1=O)CC[NH+:24](C)C)c3ccc(cc3)OC,O,0,0,8.08,['8.08'],['hunt_et_al']
c1cc(c(cc1Cl)c2cn[nH]c2N)Oc3cc(c(cc3Cl)S(=O)(=O)[NH:23]c4cscn4)F,O,0,0,6.2,['6.2'],['hunt_et_al']
c1cc(c(cc1CN2C[C@H]3C[NH2+:26]C[C@@H](C2)O3)C(=O)NCC45CC6CC(C4)CC(C6)C5)Cl,O,0,0,10,['10.0'],['hunt_et_al']
c1cc(c(cc1C[NH+:27]2C[C@H]3CNC[C@@H](C2)O3)C(=O)NCC45CC6CC(C4)CC(C6)C5)Cl,O,0,0,10,['10.0'],['hunt_et_al']
c1cc(c(cc1CN2CC[NH2+:24]CC2)C(=O)NCC34CC5CC(C3)CC(C5)C4)Cl,O,0,0,8.85,['8.85'],['hunt_et_al']
c1cc(c(cc1C[NH+:25]2CCNCC2)C(=O)NCC34CC5CC(C3)CC(C5)C4)Cl,O,0,0,8.85,['8.85'],['hunt_et_al']
c1ccc(c(c1)NC(=O)Nc2ccc(cc2[OH:20])N(=O)=O)Br,O,0,0,7.7,['7.7'],['hunt_et_al']
CC(C)c1nc2ccc(cc2c(=O)n1C[C@H]3CCC[N@H+:29](C3)C(C)C)c4ccc(cc4)F,O,0,0,9.91,['9.91'],['hunt_et_al']
Cc1nc2ccc(cc2c(=O)n1C[C@H]3CCC[N@H+:27](C3)C(C)C)c4ccc(cc4)Cl,O,0,0,10.09,['10.09'],['hunt_et_al']
C[C@H](CO)Nc1c2c([nH:20]c(=O)cn2)nc(n1)SCc3cccc(c3F)F,O,0,0,7.5,['7.5'],['hunt_et_al']
CC[N@@H+:16]1CCC[C@H]1CNC(=O)c2cc(ccc2OC)S(=O)(=O)N,O,0,0,9,['9.0'],['hunt_et_al']
c1c2c(cc(c1[OH:12])O)C[C@@H](CC2)N,O,0,0,9.1,['9.1'],['hunt_et_al']
c1c2c(cc(c1O)[OH:13])C[C@@H](CC2)N,O,0,0,9.1,['9.1'],['hunt_et_al']
c1c2c(cc(c1O)O)C[C@@H](CC2)[NH3+:11],O,0,0,10.5,['10.5'],['hunt_et_al']
c1c2c(cc(c1[OH:12])O)C[C@@H](CC2)[NH3+],O,0,0,9.1,['9.1'],['hunt_et_al']
c1c2c(cc(c1O)[OH:13])C[C@@H](CC2)[NH3+],O,0,0,9.1,['9.1'],['hunt_et_al']
C[C@H](CO)Nc1c2c([nH:22]c(=O)c(n2)C(=O)OC)nc(n1)SCc3cccc(c3F)F,O,0,0,6.6,['6.6'],['hunt_et_al']
c1ccc(cc1)C[NH+:18]2CCN(CC2)S(=O)(=O)c3ccccc3,O,0,0,5.6,['5.6'],['hunt_et_al']
CCCN(CCC)[C@@H]1CCc2c(cccc2[OH:18])C1,O,0,0,9.25,['9.25'],['hunt_et_al']
CCC[NH+:17](CCC)[C@@H]1CCc2c(cccc2O)C1,O,0,0,10.85,['10.85'],['hunt_et_al']
CCC[NH+](CCC)[C@@H]1CCc2c(cccc2[OH:18])C1,O,0,0,9.25,['9.25'],['hunt_et_al']
C[NH+:27]1CCN(CC1)c2ccc(cc2)c3cc(c4ccccc4n3)NCCN(C)C,O,0,0,8.94,['8.94'],['hunt_et_al']
CN1CCN(CC1)c2ccc(cc2)c3cc(c4ccccc4n3)NCC[NH+:29](C)C,O,0,0,8.94,['8.94'],['hunt_et_al']
COc1ccc(cc1)CC[NH+:31]2CCC(CC2)Nc3nc4ccccc4n3Cc5ccc(cc5)F,O,0,0,9.62,['9.62'],['hunt_et_al']
c1ccc2c(c1)c(=O)cc([nH]2)C(=O)[OH:14],O,0,0,2.5,['2.5'],['hunt_et_al']
Cc1c(nc[nH]1)CSCC/[NH+:13]=C(/NC)\NC#N,O,0,0,6.97,['6.97'],['hunt_et_al']
Cc1cc(cc(c1CC2=[NH+:17]CCN2)C)C(C)(C)C,O,0,0,10.6,['10.6'],['hunt_et_al']
CC1=NN([C@@H](S1)C(=O)[OH:12])C(=O)CCS,O,0,0,2.4,['2.4'],['hunt_et_al']
c1cc2c(c(c1)F)C(=[NH+:15][C@@H](N2)c3ccc(cc3)F)N,O,0,0,9,['9.0'],['hunt_et_al']
Cc1cn(c(=O)[nH:13]c1=O)Cc2ccccc2,O,0,0,9.4,['9.4'],['hunt_et_al']
CCOC(=O)N1CCC2(CC1)Nc3cccc(c3C(=[NH+:16]2)N)Cl,O,0,0,9,['9.0'],['hunt_et_al']
c1cc2c(c(c1)F)C(=[NH+:22]C3(N2)CCN(CC3)C(=O)c4ccc(cc4)C#N)N,O,0,0,9,['9.0'],['hunt_et_al']
CCCN(CCC)CCc1ccc(c(c1)NC(=O)C)[OH:20],O,0,0,8.75,['8.75'],['hunt_et_al']
CCC[NH+:18](CCC)CCc1ccc(c(c1)NC(=O)C)O,O,0,0,10.8,['10.8'],['hunt_et_al']
CCC[NH+](CCC)CCc1ccc(c(c1)NC(=O)C)[OH:20],O,0,0,8.75,['8.75'],['hunt_et_al']
CC1(c2ccc(cc2C(=O)N(C1=O)CCc3ccc(cc3)S(=O)(=O)[NH:30]C(=O)NC4CCCCC4)OC)C,O,0,0,5,['5.0'],['hunt_et_al']
Cc1[nH+:20]c(c(n1Cc2c(c3c(=O)n(c(=O)n(c3s2)CC(C)C)C)C(=O)N(C)OC)Cl)Cl,O,0,0,2.7,['2.7'],['hunt_et_al']
c1cc2cc[nH]c2[nH+:8]c1,O,0,0,4.5,['4.5'],['hunt_et_al']
c1cc(c(cc1OC2CC[NH2+:24]CC2)C(=O)NCC34CC5CC(C3)CC(C5)C4)Cl,O,0,0,9,['9.0'],['hunt_et_al']
CCC1(C(=O)[NH:13]C(=O)NC1=O)c2ccccc2,O,0,0,7.5,['7.5'],['hunt_et_al']
C[C@H](CO)Nc1c2cc(c(=O)[nH:22]c2nc(n1)SCc3cccc(c3F)F)C#N,O,0,0,7.9,['7.9'],['hunt_et_al']
c1ccc(cc1)/C=C/c2n[nH:13]nn2,O,0,0,4.5,['4.5'],['hunt_et_al']
C[NH2+:18]CC[C@@H](c1ccccc1)Oc2ccc(cc2)C(F)(F)F,O,0,0,9.9,['9.9'],['hunt_et_al']
C[C@@]12CC[C@H]3c4ccc(cc4CC[C@@H]3[C@@H]1CC[C@@H]2O)[OH:19],O,0,0,10,['10.0'],['hunt_et_al']
CC(C)[NH2+:19]C[C@H](COc1ccc(cc1)CCOCC2CC2)O,O,0,0,9.53,['9.53'],['hunt_et_al']
C[C@H](CO)Nc1c2c(nc(n1)SCc3cccc(c3F)F)nc(s2)[NH:21]S(=O)(=O)C,O,0,0,4.7,['4.7'],['hunt_et_al']
c1cnc(nc1)[NH:14]S(=O)(=O)c2ccc(cc2)N,O,0,0,6.29,['6.29'],['hunt_et_al']
CS(=O)(=O)[NH:23]C(=O)CCCc1c2cc(ccc2[nH]c1c3ccc(cc3)F)C#N,O,0,0,5.2,['5.2'],['hunt_et_al']
c1ccc(cc1)[C@H]2c3c(c4ccccc4[nH]3)C[C@H]([NH2+:20]2)C(=O)O,O,0,0,8,['8.0'],['hunt_et_al']
c1ccc(cc1)[C@H]2c3c(c4ccccc4[nH]3)C[C@H]([NH2+:20]2)C(=O)[O-],O,0,0,8,['8.0'],['hunt_et_al']
c1cc(ncc1C(=O)N2CCC3(CC2)Nc4c(ccc(c4C(=[NH+:22]3)N)F)F)C#N,O,0,0,8.4,['8.4'],['hunt_et_al']
Cc1c(sc(=[NH2+:6])[nH]1)C,O,0,0,6.3,['6.3'],['hunt_et_al']
CC(=O)[NH:10]S(=O)(=O)c1ccc(cc1)N,O,0,0,5.25,['5.25'],['hunt_et_al']
Cc1[nH+:19]ccn1C[C@H]2CCc3c(c4ccccc4n3C)C2=O,O,0,0,7.73,['7.73'],['hunt_et_al']
COc1ccc(cc1C(=O)NCCc2ccc(cc2)S(=O)(=O)[NH:26]C(=O)NC3CCCCC3)Cl,O,0,0,3.76,['3.76'],['hunt_et_al']
C[N@H+:19]1CC[C@]23c4c5ccc(c4O[C@H]2[C@H](C=C[C@H]3[C@H]1C5)O)OC,O,0,0,8.2,['8.2'],['hunt_et_al']
c1cnc(nc1)N2CC[NH+:26](CC2)CCCCN3C(=O)CC4(CCCC4)CC3=O,O,0,0,7.61,['7.61'],['hunt_et_al']
CC(C)(C)[NH2+:17]C[C@@H](COc1c(nsn1)N2CCOCC2)O,O,0,0,8.8,['8.8'],['hunt_et_al']
CC(C)[NH2+:16]C[C@H](COc1cccc2c1cc[nH]2)O,O,0,0,9.62,['9.62'],['hunt_et_al']
COc1cc[nH+:15]c(c1)CSc2[nH]c3ccccc3n2,O,0,0,5.3,['5.3'],['hunt_et_al']
c1cc(ccc1CCCC(=O)[OH:17])N(CCCl)CCCl,O,0,0,5.8,['5.8'],['hunt_et_al']
C[C@@H](c1ccc(cc1)CC(C)C)C(=O)[OH:15],O,0,0,5.2,['5.2'],['hunt_et_al']
CN1C(=C(c2ccccc2S1(=O)=O)[OH:22])C(=O)Nc3ccccn3,O,0,0,6.3,['6.3'],['hunt_et_al']
C[NH+:20]1CCC(=C2c3ccccc3CC(=O)c4c2ccs4)CC1,O,0,0,9,['9.0'],['hunt_et_al']
c1cc(ccc1C(=O)CCC[NH+:22]2CCC(CC2)(c3ccc(cc3)Cl)O)F,O,0,0,8.75,['8.75'],['hunt_et_al']
c1cc(c(cc1OCCC[NH2+:26]CCCO)C(=O)NCC23CC4CC(C2)CC(C4)C3)Cl,O,0,0,9.5,['9.5'],['hunt_et_al']
Cc1ccc(cc1NC(=O)CC23CC4CC(C2)CC(C4)C3)C(=O)N5C[C@H]6C[NH2+:27]C[C@@H](C5)O6,O,0,0,7.18,['7.18'],['hunt_et_al']
c1cc(c(cc1n2c(=O)[nH:23]c(=O)cn2)C(=O)NCC34CC5CC(C3)CC(C5)C4)Cl,O,0,0,6.2,['6.2'],['hunt_et_al']
Cc1cccc(c1OC[C@H](C)[NH3+:12])C,O,0,0,9.13,['9.13'],['hunt_et_al']
c1ccc(c(c1)CCNC(=O)c2cc(ccc2Cl)n3c(=O)[nH:20]c(=O)cn3)Cl,O,0,0,6.1,['6.1'],['hunt_et_al']
c1c(c(cnc1OC2CC[NH2+:24]CC2)Cl)C(=O)NCC34CC5CC(C3)CC(C5)C4,O,0,0,9.1,['9.1'],['hunt_et_al']
C[C@@H](c1ccc(c(c1)F)c2ccccc2)C(=O)[OH:17],O,0,0,4.2,['4.2'],['hunt_et_al']
c1ccc(cc1)c2c(c(nc(n2)N)[OH:16])C#N,O,0,0,6.52,['6.52'],['hunt_et_al']
c1c(c(cnc1N2CC[NH2+:23]CC2)Cl)C(=O)NCC34CC5CC(C3)CC(C5)C4,O,0,0,8.5,['8.5'],['hunt_et_al']
CCOC(=O)[C@H](CCc1ccccc1)N[C@@H](C)C(=O)N2CCC[C@H]2C(=O)[OH:26],O,0,0,3.1,['3.1'],['hunt_et_al']
CCOC(=O)[C@H](CCc1ccccc1)[NH2+:22][C@@H](C)C(=O)N2CCC[C@H]2C(=O)O,O,0,0,6.4,['6.4'],['hunt_et_al']
CCOC(=O)[C@H](CCc1ccccc1)[NH2+:22][C@@H](C)C(=O)N2CCC[C@H]2C(=O)[O-],O,0,0,6.4,['6.4'],['hunt_et_al']
CCOC(=O)[C@H](CCc1ccccc1)[NH2+][C@@H](C)C(=O)N2CCC[C@H]2C(=O)[OH:26],O,0,0,3.1,['3.1'],['hunt_et_al']
CCCN(CCC)CCc1ccc(c2c1CC(=O)N2)[OH:20],O,0,0,8.35,['8.35'],['hunt_et_al']
CCC[NH+:18](CCC)CCc1ccc(c2c1CC(=O)N2)O,O,0,0,10.2,['10.2'],['hunt_et_al']
CCC[NH+](CCC)CCc1ccc(c2c1CC(=O)N2)[OH:20],O,0,0,8.35,['8.35'],['hunt_et_al']
C[NH+:21](C)CCC=C1c2ccccc2CCc3c1cccc3,O,0,0,9.4,['9.4'],['hunt_et_al']
CCC[NH2+:22]C[C@H](COc1ccccc1C(=O)CCc2ccccc2)O,O,0,0,9.27,['9.27'],['hunt_et_al']
CCCC(=O)Nc1ccc(c(c1)C(=O)C)OC[C@@H](C[NH2+:20]C(C)C)O,O,0,0,9.45,['9.45'],['hunt_et_al']
CC(C)[NH2+:19]C[C@H](COc1ccc(cc1)COCCOC(C)C)O,O,0,0,9.87,['9.87'],['hunt_et_al']
CC(C)[C@@](CCC[N@@H+:29](C)CCc1ccc(c(c1)OC)OC)(C#N)c2ccc(c(c2)OC)OC,O,0,0,8.6,['8.6'],['hunt_et_al']
C[N@H+:18]1CC[C@]23c4c5ccc(c4O[C@H]2[C@H](C=C[C@H]3[C@H]1C5)O)O,O,0,0,8.18,['8.18'],['hunt_et_al']
CC(C)(C)[NH2+:14]C[C@@H](c1ccc(c(c1)CO)O)O,O,0,0,9.3,['9.3'],['hunt_et_al']
CCCCNC(=O)[NH:14]S(=O)(=O)c1ccc(cc1)C,O,0,0,5.3,['5.3'],['hunt_et_al']
CC(C)(c1ccccc1CC[C@H](c2cccc(c2)/C=C/c3ccc4ccc(cc4[nH+:36]3)Cl)SCC5(CC5)CC(=O)O)O,O,0,0,5.6,['5.6'],['hunt_et_al']
CC(C)(c1ccccc1CC[C@H](c2cccc(c2)/C=C/c3ccc4ccc(cc4[nH+:36]3)Cl)SCC5(CC5)CC(=O)[O-])O,O,0,0,5.6,['5.6'],['hunt_et_al']
CC[NH+:16](CC)CC(=O)Nc1c(cccc1C)C,O,0,0,7.94,['7.94'],['hunt_et_al']
C[C@@]12CC3C[C@@](C1)(CC(C3)(C2)[NH3+:13])C,O,0,0,10.66,['10.66'],['hunt_et_al']
Cc1ccc(cc1)S(=O)(=O)[NH:17]C(=O)NN2CCCCCC2,O,0,0,5.8,['5.8'],['hunt_et_al']
CN(C)C(=O)C(CC[NH+:30]1CCC(CC1)(c2ccc(cc2)Cl)O)(c3ccccc3)c4ccccc4,O,0,0,9.14,['9.14'],['hunt_et_al']
Cc1c(c(=O)n2c(n1)CCCC2)CC[NH+:27]3CCC(CC3)c4c5ccc(cc5on4)F,O,0,0,8.49,['8.49'],['hunt_et_al']
CC[NH+:17](CC)CCNC(=O)c1cc(c(cc1OC)N)Cl,O,0,0,9.51,['9.51'],['hunt_et_al']
C[C@H](C(=O)c1cccc(c1)Cl)[NH2+:14]C(C)(C)C,O,0,0,8.4,['8.4'],['hunt_et_al']
CC(C)(c1ccc(cc1)[C@H](CCCN2CCC(CC2)C(c3ccccc3)(c4ccccc4)O)O)C(=O)[OH:35],O,0,0,2.26,['2.26'],['hunt_et_al']
CC(C)(c1ccc(cc1)[C@H](CCC[NH+:33]2CCC(CC2)C(c3ccccc3)(c4ccccc4)O)O)C(=O)O,O,0,0,7.53,['7.53'],['hunt_et_al']
CC(C)(c1ccc(cc1)[C@H](CCC[NH+:33]2CCC(CC2)C(c3ccccc3)(c4ccccc4)O)O)C(=O)[O-],O,0,0,7.53,['7.53'],['hunt_et_al']
CC(C)(c1ccc(cc1)[C@H](CCC[NH+]2CCC(CC2)C(c3ccccc3)(c4ccccc4)O)O)C(=O)[OH:35],O,0,0,2.26,['2.26'],['hunt_et_al']
CCN(CC)CCNC(=O)c1ccc(cc1)[NH:15]S(=O)(=O)C,O,0,0,7.52,['7.52'],['hunt_et_al']
CC[NH+:17](CC)CCNC(=O)c1ccc(cc1)NS(=O)(=O)C,O,0,0,9.35,['9.35'],['hunt_et_al']
CC[NH+:17](CC)CCNC(=O)c1ccc(cc1)[N-]S(=O)(=O)C,O,0,0,9.35,['9.35'],['hunt_et_al']
CC[NH+](CC)CCNC(=O)c1ccc(cc1)[NH:15]S(=O)(=O)C,O,0,0,7.52,['7.52'],['hunt_et_al']
Cn1c2ccccc2nc1[S@@](=O)Cc3cccc[nH+:15]3,O,0,0,2.6,['2.6'],['hunt_et_al']
c1ccc2c(c1)[nH:16]c(n2)[S@@](=O)Cc3ccccn3,O,0,0,8.8,['8.8'],['hunt_et_al']