Solute SMILES,Solvent SMILES,Solute CAS,Solute IUPAC,pKa (avg),pKa (all),Source (all)
COc1ccccc1C[NH3+:9],O,0,0,9.7,['9.7'],['hunt_et_al']
c1cc2c(cc1C[NH3+:9])OCO2,O,0,0,9.37,['9.37'],['hunt_et_al']
C(c1c(c(c(c(c1F)F)F)F)F)[NH3+:8],O,0,0,7.67,['7.67'],['hunt_et_al']
c1ccc(c(c1)C[NH3+:8])S(=O)(=O)N,O,0,0,8.53,['8.53'],['hunt_et_al']
Cc1ccccc1/C=C/C(=O)[OH:12],O,0,0,4.49,['4.49'],['hunt_et_al']
c1cc(ccc1C[NH3+:8])S(=O)(=O)N,O,0,0,8.52,['8.52'],['hunt_et_al']
c1ccc(cc1)c2ccccc2[NH3+:13],O,0,0,3.82,['3.82'],['hunt_et_al']
c1ccc(cc1)c2cccc(c2)[NH3+:13],O,0,0,4.25,['4.25'],['hunt_et_al']
c1ccc-2c(c1)Cc3c2cccc3[NH3+:14],O,0,0,3.87,['3.87'],['hunt_et_al']
c1ccc-2c(c1)Cc3c2ccc(c3)[NH3+:14],O,0,0,4.64,['4.64'],['hunt_et_al']
c1ccc-2c(c1)Cc3c2c(ccc3)[NH3+:14],O,0,0,3.39,['3.39'],['hunt_et_al']
Cc1ccc(cc1)/C=C/C(=O)[OH:12],O,0,0,4.56,['4.56'],['hunt_et_al']
c1ccc2c(c1)CC(C2)[NH3+:10],O,0,0,9.57,['9.57'],['hunt_et_al']
c1ccc2c(c1)C[C@H]([C@@H]2O)[NH3+:10],O,0,0,8.13,['8.13'],['hunt_et_al']
c1ccc2c(c1)CC[C@@H]2[NH2+:19][C@H]3CCc4c3cccc4,O,0,0,6.46,['6.46'],['hunt_et_al']
C[C@@H](c1ccccc1)[NH2+:18][C@H]2CCc3c2cccc3,O,0,0,6.87,['6.87'],['hunt_et_al']
c1ccc2c(c1)CC[C@@H]2[NH2+:16]c3cccc(c3)N(=O)=O,O,0,0,-0.46,['-0.46'],['hunt_et_al']
c1ccc2c(c1)CC[C@@H]2[NH2+:16]c3ccc(cc3)N(=O)=O,O,0,0,-1.13,['-1.13'],['hunt_et_al']
c1ccc(cc1)[NH2+:16][C@H]2CCc3c2cccc3,O,0,0,1.8,['1.8'],['hunt_et_al']
Cc1ccccc1[NH2+:17][C@H]2CCc3c2cccc3,O,0,0,0.83,['0.83'],['hunt_et_al']
Cc1cccc(c1)[NH2+:17][C@H]2CCc3c2cccc3,O,0,0,2.49,['2.49'],['hunt_et_al']
Cc1ccc(cc1)[NH2+:17][C@H]2CCc3c2cccc3,O,0,0,1.8,['1.8'],['hunt_et_al']
c1ccc2c(c1)cccc2[NH3+:11],O,0,0,3.92,['3.92'],['hunt_et_al']
c1ccc2cc(ccc2c1)[NH3+:11],O,0,0,4.16,['4.16'],['hunt_et_al']
c1ccc2c(c1)cc(cc2[NH3+:11])Cl,O,0,0,2.69,['2.69'],['hunt_et_al']
c1cc2cc(ccc2c(c1)[NH3+:11])Cl,O,0,0,3.48,['3.48'],['hunt_et_al']
c1cc2ccc(cc2c(c1)[NH3+:11])Cl,O,0,0,3.48,['3.48'],['hunt_et_al']
c1ccc2c(c1)cc(cc2Cl)[NH3+:11],O,0,0,3.38,['3.38'],['hunt_et_al']
c1cc(cc2c1ccc(c2)Cl)[NH3+:11],O,0,0,3.71,['3.71'],['hunt_et_al']
c1ccc2c(c1)cc(cc2[NH3+:11])I,O,0,0,2.82,['2.82'],['hunt_et_al']
COc1cc2ccccc2c(c1)[NH3+:12],O,0,0,3.26,['3.26'],['hunt_et_al']
COc1ccc2c(c1)cccc2[NH3+:12],O,0,0,3.9,['3.9'],['hunt_et_al']
COc1ccc2cccc(c2c1)[NH3+:12],O,0,0,4.07,['4.07'],['hunt_et_al']
COc1cc(cc2c1cccc2)[NH3+:12],O,0,0,4.05,['4.05'],['hunt_et_al']
COc1ccc2cc(ccc2c1)[NH3+:12],O,0,0,4.64,['4.64'],['hunt_et_al']
COC(=O)c1cc2ccccc2c(c1)[NH3+:13],O,0,0,3.12,['3.12'],['hunt_et_al']
c1ccc2c(c1)c(ccc2N(=O)=O)[NH3+:11],O,0,0,0.54,['0.54'],['hunt_et_al']
c1cc2c(cccc2N(=O)=O)c(c1)[NH3+:11],O,0,0,2.73,['2.73'],['hunt_et_al']
c1cc2cc(ccc2c(c1)[NH3+:11])N(=O)=O,O,0,0,2.89,['2.89'],['hunt_et_al']
c1cc2ccc(cc2c(c1)[NH3+:11])N(=O)=O,O,0,0,2.55,['2.55'],['hunt_et_al']
c1ccc2c(c1)ccc(c2N(=O)=O)[NH3+:11],O,0,0,-0.85,['-0.85'],['hunt_et_al']
c1ccc2cc(c(cc2c1)[NH3+:11])N(=O)=O,O,0,0,1.48,['1.48'],['hunt_et_al']
c1ccc2c(c1)cc(cc2N(=O)=O)[NH3+:11],O,0,0,2.43,['2.43'],['hunt_et_al']
c1cc2cc(ccc2c(c1)N(=O)=O)[NH3+:11],O,0,0,3.01,['3.01'],['hunt_et_al']
c1cc(cc2c1cc(cc2)N(=O)=O)[NH3+:11],O,0,0,2.62,['2.62'],['hunt_et_al']
c1cc2ccc(cc2c(c1)N(=O)=O)[NH3+:11],O,0,0,2.73,['2.73'],['hunt_et_al']
c1ccc2c(c1)CCC[C@H]2[NH3+:11],O,0,0,9.63,['9.63'],['hunt_et_al']
c1ccc2c(c1)CC[C@H](C2)[NH3+:11],O,0,0,9.93,['9.93'],['hunt_et_al']
c1cc2c(c(c1)[NH3+:11])CCCC2,O,0,0,4.47,['4.47'],['hunt_et_al']
c1cc2c(cc1[NH3+:11])CCCC2,O,0,0,5.17,['5.17'],['hunt_et_al']
CCCC[N@H+:16](C)[C@@H]1CCc2ccccc2C1,O,0,0,9.71,['9.71'],['hunt_et_al']
C[NH+:13](C)c1cccc2c1cccc2,O,0,0,4.83,['4.83'],['hunt_et_al']
C[NH+:13](C)[C@@H]1CCc2ccccc2C1,O,0,0,9.5,['9.5'],['hunt_et_al']
CC[NH2+:13]c1cccc2c1cccc2,O,0,0,4.19,['4.19'],['hunt_et_al']
C[NH2+:12]c1cccc2c1cccc2,O,0,0,3.67,['3.67'],['hunt_et_al']
CCC[N@H+:15](C)[C@@H]1CCc2ccccc2C1,O,0,0,9.83,['9.83'],['hunt_et_al']
C[N@H+:12]1CCCC[C@H](C(=O)CCCC1)O,O,0,0,9.1,['9.1'],['hunt_et_al']
C1CCC[NH2+:7]CC1,O,0,0,11.1,['11.1'],['hunt_et_al']
C1C[NH2+:3]1,O,0,0,8,['8.0'],['hunt_et_al']
c1ccc(c(c1)CC(=O)[OH:10])Cl,O,0,0,4.07,['4.07'],['hunt_et_al']
CC[C@@H]1C[N@H+:7]1CC,O,0,0,8.18,['8.18'],['hunt_et_al']
CC1(C[NH2+:5]1)C,O,0,0,8.64,['8.64'],['hunt_et_al']
C[C@H]1[C@@H]([NH2+:5]1)C,O,0,0,8.7,['8.7'],['hunt_et_al']
CC[NH+:5]1CC1,O,0,0,7.93,['7.93'],['hunt_et_al']
CC[NH+:7]1[C@@H]([C@@H]1C)C,O,0,0,8.56,['8.56'],['hunt_et_al']
C[NH+:4]1CC1,O,0,0,7.9,['7.9'],['hunt_et_al']
CC(C)(C)[N@@H+:13]1CCC[C@H](C(=O)CCC1)O,O,0,0,7.6,['7.6'],['hunt_et_al']
c1cc(cc(c1)Cl)CC(=O)[OH:10],O,0,0,4.14,['4.14'],['hunt_et_al']
CC[N@@H+:11]1CCC[C@H](C(=O)CCC1)O,O,0,0,9.2,['9.2'],['hunt_et_al']
C[N@@H+:10]1CCC[C@H](C(=O)CCC1)O,O,0,0,9.2,['9.2'],['hunt_et_al']
C=CC[NH+:9]1CCCCC1,O,0,0,9.65,['9.65'],['hunt_et_al']
c1cc(ccc1CC(=O)[OH:10])Cl,O,0,0,4.19,['4.19'],['hunt_et_al']
C[C@@H]1C[C@@H](CC([NH2+:15]1)(C)C)Oc2ccccc2,O,0,0,9.54,['9.54'],['hunt_et_al']
CCCC[NH+:10]1CCCCC1,O,0,0,10.43,['10.43'],['hunt_et_al']
CCCC[N@H+:11]1CCCC[C@H]1C,O,0,0,10.7,['10.7'],['hunt_et_al']
C[C@@H]1CCCC[N@H+:8]1C,O,0,0,10.22,['10.22'],['hunt_et_al']
c1ccc(c(c1)CC(=O)[OH:10])Br,O,0,0,4.05,['4.05'],['hunt_et_al']
CC[N@@H+:9]1CCCC[C@H]1C,O,0,0,10.66,['10.66'],['hunt_et_al']
C[C@@H]1CCC[C@@H]([NH+:12]1CC(C)(C)O)C,O,0,0,10.5,['10.5'],['hunt_et_al']
c1cc(ccc1CC(=O)[OH:10])Br,O,0,0,4.19,['4.19'],['hunt_et_al']
C[C@@H]1CCCC[NH2+:7]1,O,0,0,11.08,['11.08'],['hunt_et_al']
C[C@H]1CCC[NH2+:7]C1,O,0,0,11.07,['11.07'],['hunt_et_al']
C[NH+:19]1CCC(CC1)(c2ccccc2)c3ccccc3,O,0,0,8.65,['8.65'],['hunt_et_al']
C[C@@H](C=C(c1cccs1)c2cccs2)[NH+:18]3CCCCC3,O,0,0,8.41,['8.41'],['hunt_et_al']
C[C@@H]1CCCC[N@@H+:19]1[C@@H](C)C=C(c2cccs2)c3cccs3,O,0,0,7.41,['7.41'],['hunt_et_al']
C[C@@H]1CCC[N@@H+:19](C1)[C@@H](C)C=C(c2cccs2)c3cccs3,O,0,0,8.23,['8.23'],['hunt_et_al']
CC1CC[NH+:19](CC1)[C@@H](C)C=C(c2cccs2)c3cccs3,O,0,0,8.15,['8.15'],['hunt_et_al']
CC[C@@H](C)[NH+:22]1CCC(CC1)(c2ccccc2)c3ccccc3,O,0,0,9.67,['9.67'],['hunt_et_al']
c1ccc(c(c1)CC(=O)[OH:10])I,O,0,0,4.04,['4.04'],['hunt_et_al']
CC1(CCCC([NH+:11]1C)(C)C)C,O,0,0,11.19,['11.19'],['hunt_et_al']
CCC[C@@H]1CCCC[NH2+:9]1,O,0,0,10.9,['10.9'],['hunt_et_al']
C[C@H]1CC[N@@H+:10](C(C1)(C)C)C,O,0,0,10.18,['10.18'],['hunt_et_al']
c1cc(cc(c1)I)CC(=O)[OH:10],O,0,0,4.16,['4.16'],['hunt_et_al']
CC(=O)Nc1cccc[nH+:8]1,O,0,0,4.09,['4.09'],['hunt_et_al']
c1cc[nH+:6]c(c1)N,O,0,0,6.82,['6.82'],['hunt_et_al']
c1cc(ccc1CC(=O)[OH:10])I,O,0,0,4.18,['4.18'],['hunt_et_al']
C[NH+:19](C)CC[N@@](Cc1ccccc1)c2ccccn2,O,0,0,8.96,['8.96'],['hunt_et_al']
C[NH+](C)CCN(Cc1ccccc1)c2cccc[nH+:17]2,O,0,0,3.92,['3.92'],['hunt_et_al']
c1cc(cc(c1)Cl)CCC(=O)[OH:11],O,0,0,4.59,['4.59'],['hunt_et_al']
c1ccc(c(c1)/C=C/C(=O)[OH:11])Cl,O,0,0,4.41,['4.41'],['hunt_et_al']
c1cc(cc(c1)Cl)/C=C/C(=O)[OH:11],O,0,0,4.29,['4.29'],['hunt_et_al']
C[NH+:11](C)CCc1ccccn1,O,0,0,8.75,['8.75'],['hunt_et_al']
C[NH+:11](C)CCc1ccncc1,O,0,0,8.7,['8.7'],['hunt_et_al']
C[NH+:10](C)Cc1ccccn1,O,0,0,8.12,['8.12'],['hunt_et_al']
C[NH+:10](C)Cc1cccnc1,O,0,0,8,['8.0'],['hunt_et_al']
C[C@@](c1ccccc1)(C(=O)[OH:11])O,O,0,0,3.53,['3.53'],['hunt_et_al']
c1ccc(cc1)[C@H](CC(=O)[OH:11])O,O,0,0,4.398,['4.398'],['hunt_et_al']
c1cc(c(nc1)C=O)[OH:9],O,0,0,6.95,['6.95'],['hunt_et_al']
c1cncc(c1C=O)[OH:9],O,0,0,6.77,['6.77'],['hunt_et_al']
c1ccc(cc1)C(c2ccccc2)(C(=O)[OH:16])O,O,0,0,3.05,['3.05'],['hunt_et_al']
c1ccc(c(c1)/C=C/C(=O)[OH:12])O,O,0,0,4.61,['4.61'],['hunt_et_al']
c1cc(cc(c1)O)/C=C/C(=O)[OH:12],O,0,0,4.396,['4.396'],['hunt_et_al']
CC(=O)N(C)c1cccc[nH+:9]1,O,0,0,2.01,['2.01'],['hunt_et_al']
C[NH2+:9]Cc1ccccn1,O,0,0,8.82,['8.82'],['hunt_et_al']
c1ccc(c(c1)CC(=O)[OH:13])N(=O)=O,O,0,0,4.004,['4.004'],['hunt_et_al']
CN(c1cccc[nH+:14]1)C(=O)c2ccccc2,O,0,0,1.44,['1.44'],['hunt_et_al']
Cc1cccc([nH+:8]1)NC,O,0,0,8.84,['8.84'],['hunt_et_al']
c1ccc(c(c1)CCC(=O)[OH:14])N(=O)=O,O,0,0,4.504,['4.504'],['hunt_et_al']
c1ccc(c(c1)/C=C/C(=O)[OH:14])N(=O)=O,O,0,0,4.15,['4.15'],['hunt_et_al']
c1ccnc(c1)CC[NH+:14]2CCCCC2,O,0,0,9.29,['9.29'],['hunt_et_al']
c1cnccc1CC[NH+:14]2CCCCC2,O,0,0,9.06,['9.06'],['hunt_et_al']
c1cc(cnc1)C[NH+:13]2CCCCC2,O,0,0,8.3,['8.3'],['hunt_et_al']
c1cnccc1C[NH+:13]2CCCCC2,O,0,0,7.88,['7.88'],['hunt_et_al']
c1ccnc(c1)[C@H]2CCCC[NH2+:12]2,O,0,0,9.1,['9.1'],['hunt_et_al']
c1ccnc(c1)CC[NH+:13]2CCCC2,O,0,0,9.39,['9.39'],['hunt_et_al']
c1cc(cnc1)CC[NH+:13]2CCCC2,O,0,0,9.28,['9.28'],['hunt_et_al']
c1cnccc1CC[NH+:13]2CCCC2,O,0,0,9.27,['9.27'],['hunt_et_al']
c1ccnc(c1)C[NH+:12]2CCCC2,O,0,0,8.56,['8.56'],['hunt_et_al']
c1cc(cnc1)C[NH+:12]2CCCC2,O,0,0,8.36,['8.36'],['hunt_et_al']
c1cnccc1C[NH+:12]2CCCC2,O,0,0,8.16,['8.16'],['hunt_et_al']
CC1=CCCC[NH2+:7]1,O,0,0,9.53,['9.53'],['hunt_et_al']
COc1ccc(cc1OC)CC(=O)[OH:12],O,0,0,4.33,['4.33'],['hunt_et_al']
c1cn(=O)ccc1C(=O)[OH:10],O,0,0,2.86,['2.86'],['hunt_et_al']
c1cn(=O)ccc1[OH:8],O,0,0,5.76,['5.76'],['hunt_et_al']
COc1ccccc1/C=C/C(=O)[OH:12],O,0,0,4.46,['4.46'],['hunt_et_al']
C1CC[NH2+:5]C1,O,0,0,11.3,['11.3'],['hunt_et_al']
c1ccc(cc1)C[NH+:12]2CCCC2,O,0,0,9.51,['9.51'],['hunt_et_al']
c1ccc(cc1)C[C@@H]2CCC[NH2+:12]2,O,0,0,10.31,['10.31'],['hunt_et_al']
CCCC[NH+:9]1CCCC1,O,0,0,10.36,['10.36'],['hunt_et_al']
COc1cccc(c1)/C=C/C(=O)[OH:12],O,0,0,4.38,['4.38'],['hunt_et_al']
C[C@@H]1CCC[N@H+:7]1C,O,0,0,10.2,['10.2'],['hunt_et_al']
CC[C@@H]1CCC[NH2+:7]1,O,0,0,10.43,['10.43'],['hunt_et_al']
COc1ccc(cc1)/C=C/C(=O)[OH:12],O,0,0,4.54,['4.54'],['hunt_et_al']
C[N@@H+:13]1CCC[C@H]1c2ccc(cc2)OC,O,0,0,8.9,['8.9'],['hunt_et_al']
C[NH+:6]1CCCC1,O,0,0,10.3,['10.3'],['hunt_et_al']
C[N@@H+:12]1CCC[C@H]1c2ccccc2,O,0,0,8.8,['8.8'],['hunt_et_al']
CCC[C@@H]1CCC[N@H+:9]1C,O,0,0,9.78,['9.78'],['hunt_et_al']
c1ccc(cc1)CSCCC(=O)[OH:12],O,0,0,4.46,['4.46'],['hunt_et_al']
c1cc(sc1)[C@@H]2CCC[NH2+:9]2,O,0,0,9.35,['9.35'],['hunt_et_al']
Cc1ccc(cc1)[NH+:12]2CCCC2,O,0,0,4.7,['4.7'],['hunt_et_al']
c1ccc(cc1)CC2=CCC[NH2+:12]2,O,0,0,7.06,['7.06'],['hunt_et_al']
CCCCC1=CCC[N@@H+:10]1C,O,0,0,11.84,['11.84'],['hunt_et_al']
CCC1=CCC[NH2+:7]1,O,0,0,7.87,['7.87'],['hunt_et_al']
Cc1ccc(cc1)C2=CCC[NH2+:12]2,O,0,0,7.55,['7.55'],['hunt_et_al']
C[NH+:6]1CC=CC1,O,0,0,9.88,['9.88'],['hunt_et_al']
c1cc(cc(c1)F)[C@H](C(=O)[OH:10])O,O,0,0,4.24,['4.24'],['hunt_et_al']
c1cc(cc(c1)Br)[C@H](C(=O)[OH:10])O,O,0,0,3.23,['3.23'],['hunt_et_al']
C1COCC[NH2+:5]1,O,0,0,8.5,['8.5'],['hunt_et_al']
c1cc(cc(c1)I)[C@H](C(=O)[OH:10])O,O,0,0,3.26,['3.26'],['hunt_et_al']
CC(=O)C(CC[NH+:22]1CCOCC1)(c2ccccc2)c3ccccc3,O,0,0,6.83,['6.83'],['hunt_et_al']
CC(=O)[C@H](C[NH+:15]1CCOCC1)c2ccccc2,O,0,0,6.23,['6.23'],['hunt_et_al']
C=CC[NH+:8]1CCOCC1,O,0,0,7.02,['7.02'],['hunt_et_al']
c1ccc(cc1)[C@H](C[NH+:20]2CCOCC2)C(=O)c3ccccc3,O,0,0,6.17,['6.17'],['hunt_et_al']
c1ccc(cc1)C(CC[NH+:22]2CCOCC2)(C#N)c3ccccc3,O,0,0,6.04,['6.04'],['hunt_et_al']
C[C@H](CC(C#N)(c1ccccc1)c2ccccc2)[NH+:23]3CCOCC3,O,0,0,6.05,['6.05'],['hunt_et_al']
CCCC(=O)C(CC[NH+:24]1CCOCC1)(c2ccccc2)c3ccccc3,O,0,0,7.17,['7.17'],['hunt_et_al']
CCC(=O)C(CC[NH+:23]1CCOCC1)(c2ccccc2)c3ccccc3,O,0,0,6.95,['6.95'],['hunt_et_al']
CCC(=O)C(C[C@H](C)[NH+:24]1CCOCC1)(c2ccccc2)c3ccccc3,O,0,0,6.68,['6.68'],['hunt_et_al']
CCC(=O)C(c1ccccc1)(c2ccccc2)[C@H](C)C[NH+:24]3CCOCC3,O,0,0,7.12,['7.12'],['hunt_et_al']
C[C@@H](CC(c1ccccc1)c2ccccc2)[NH+:21]3CCOCC3,O,0,0,6.85,['6.85'],['hunt_et_al']
CC(=O)N1CC[NH2+:7]CC1,O,0,0,7.9,['7.9'],['hunt_et_al']
c1ccc(cc1)C(=O)N2CC[NH2+:12]CC2,O,0,0,7.75,['7.75'],['hunt_et_al']
C[NH+:14]1CCN(CC1)C(=O)c2ccccc2,O,0,0,6.78,['6.78'],['hunt_et_al']
CCOC(=O)N1CC[NH2+:8]CC1,O,0,0,8.2,['8.2'],['hunt_et_al']
CCOC(=O)N1CC[NH+:10](CC1)C,O,0,0,7.31,['7.31'],['hunt_et_al']
c1ccc2cc(ccc2c1)C(=O)CCC(=O)[OH:17],O,0,0,4.96,['4.96'],['hunt_et_al']
c1cnncc1[OH:7],O,0,0,8.72,['8.72'],['hunt_et_al']
c1c[nH+:5]c(nc1)N,O,0,0,3.45,['3.45'],['hunt_et_al']
COC(=O)CC(c1ccccc1)(c2ccccc2)C(=O)[OH:20],O,0,0,3.899,['3.899'],['hunt_et_al']
COC(=O)CCC(c1ccccc1)(c2ccccc2)C(=O)[OH:21],O,0,0,4,['4.0'],['hunt_et_al']
c1ccc(cc1)c2cc(nc([nH+:17]2)N)c3ccccc3,O,0,0,3.74,['3.74'],['hunt_et_al']
Cc1cc[nH+:6]c(n1)N,O,0,0,4.11,['4.11'],['hunt_et_al']
Cn1cc(c(nc1=O)[OH:9])Br,O,0,0,7.84,['7.84'],['hunt_et_al']
CNc1[nH+:6]cc(cn1)Br,O,0,0,2.09,['2.09'],['hunt_et_al']
CCCCNc1[nH+:9]cccn1,O,0,0,4.14,['4.14'],['hunt_et_al']
c1cnc(nc1)C(=O)[OH:9],O,0,0,2.85,['2.85'],['hunt_et_al']
CNc1[nH+:6]ccc(n1)Cl,O,0,0,2.59,['2.59'],['hunt_et_al']
Cn1ccc(nc1=O)[OH:9],O,0,0,9.71,['9.71'],['hunt_et_al']
COC(=O)[C@H](CC(=O)[OH:14])c1ccccc1,O,0,0,4.36,['4.36'],['hunt_et_al']
CN(C)c1cc(ncn1)[OH:10],O,0,0,10.49,['10.49'],['hunt_et_al']
COC(=O)C[C@H](c1ccccc1)C(=O)[OH:14],O,0,0,4.05,['4.05'],['hunt_et_al']
Cc1cc(nc([nH+:8]1)NC)C,O,0,0,5.23,['5.23'],['hunt_et_al']
CCOc1ccnc(n1)[OH:9],O,0,0,10.7,['10.7'],['hunt_et_al']
CCNc1[nH+:7]cccn1,O,0,0,3.89,['3.89'],['hunt_et_al']
c1c(cncn1)[OH:7],O,0,0,6.8,['6.8'],['hunt_et_al']
COc1cncnc1[OH:8],O,0,0,8.64,['8.64'],['hunt_et_al']
Cc1cc(nc(n1)OC)[OH:9],O,0,0,8.5,['8.5'],['hunt_et_al']
Cc1cc(ncn1)[OH:8],O,0,0,9.1,['9.1'],['hunt_et_al']
CNc1[nH+:7]ccc(n1)OC,O,0,0,5.74,['5.74'],['hunt_et_al']
CNc1[nH+:6]cccn1,O,0,0,3.79,['3.79'],['hunt_et_al']
CCCCCNc1[nH+:10]cccn1,O,0,0,4.03,['4.03'],['hunt_et_al']
Cc1ccccc1[OH:8],O,0,0,10.28,['10.28'],['hunt_et_al']
C1CSCC[NH2+:5]1,O,0,0,9,['9.0'],['hunt_et_al']
Cc1cccc(c1)[OH:8],O,0,0,10.09,['10.09'],['hunt_et_al']
c1c(ncs1)CC[NH3+:7],O,0,0,9.48,['9.48'],['hunt_et_al']
Cc1ccc(cc1)[OH:8],O,0,0,10.26,['10.26'],['hunt_et_al']
C(=C\C(=O)O)\C(=O)[OH:7],O,0,0,2,['2.0'],['hunt_et_al']
C(=C\C(=O)[O-])\C(=O)[OH:7],O,0,0,6.25,['6.25'],['hunt_et_al']
Cc1cccc(c1C)[OH:9],O,0,0,10.5,['10.5'],['hunt_et_al']
Cc1cccc(c1[OH:9])C,O,0,0,10.59,['10.59'],['hunt_et_al']
Cc1cc(cc(c1)[OH:9])C,O,0,0,10.15,['10.15'],['hunt_et_al']
c1ccc2c(c1)cc[nH+:10]c2N,O,0,0,7.59,['7.59'],['hunt_et_al']
Cc1cc(c(c(c1)C)[OH:10])C,O,0,0,10.88,['10.88'],['hunt_et_al']
c1ccc2c(c1)cncc2[OH:11],O,0,0,8.7,['8.7'],['hunt_et_al']
c1cc2cnccc2cc1[OH:11],O,0,0,9.17,['9.17'],['hunt_et_al']
CCc1cc(cc(c1)[OH:10])C,O,0,0,10.1,['10.1'],['hunt_et_al']
c1cc2ccncc2c(c1)[OH:11],O,0,0,8.42,['8.42'],['hunt_et_al']
c1cc2c(cc1[OH:10])CCC2,O,0,0,10.32,['10.32'],['hunt_et_al']
c1ccc2c(c1)CC[NH2+:10]C2,O,0,0,9.41,['9.41'],['hunt_et_al']
C[n+]1cc2ccccc2c(c1)[OH:12],O,0,0,4.9,['4.9'],['hunt_et_al']
C[n+]1ccc2c(c1)cccc2[OH:12],O,0,0,6.87,['6.87'],['hunt_et_al']
C[n+]1ccc2ccc(cc2c1)[OH:12],O,0,0,7.06,['7.06'],['hunt_et_al']
CC(C)(C)C(=O)[OH:7],O,0,0,5.03,['5.03'],['hunt_et_al']
c1cc2c(cc1[OH:11])CCCC2,O,0,0,10.48,['10.48'],['hunt_et_al']
c1cc2c(ccc(c2nc1)O)C(=O)[OH:14],O,0,0,4.8,['4.8'],['hunt_et_al']
c1ccc(cc1)c2ccc(cc2)[OH:13],O,0,0,9.55,['9.55'],['hunt_et_al']
c1cc2ccc(c(c2nc1)[OH:11])Cl,O,0,0,8.7,['8.7'],['hunt_et_al']
c1cc2c(cc(c(c2nc1)[OH:11])Cl)Cl,O,0,0,7.62,['7.62'],['hunt_et_al']
c1ccc2cc(ccc2c1)[OH:11],O,0,0,9.57,['9.57'],['hunt_et_al']
CC[NH+:16](CC)Cc1ccc2cccnc2c1O,O,0,0,11.3,['11.3'],['hunt_et_al']
c1ccnc(c1)[OH:7],O,0,0,11.62,['11.62'],['hunt_et_al']
C[NH+:14](C)Cc1ccc2cccnc2c1O,O,0,0,11,['11.0'],['hunt_et_al']
Cc1ccnc2c1cccc2[OH:12],O,0,0,10,['10.0'],['hunt_et_al']
c1ccc2c(c1)ccc(n2)[OH:11],O,0,0,11.76,['11.76'],['hunt_et_al']
c1ccc2c(c1)c(ccn2)[OH:11],O,0,0,11.28,['11.28'],['hunt_et_al']
c1cc2c(cccn2)c(c1)[OH:11],O,0,0,8.56,['8.56'],['hunt_et_al']
c1cc2cc(ccc2nc1)[OH:11],O,0,0,8.9,['8.9'],['hunt_et_al']
c1cc2ccc(cc2nc1)[OH:11],O,0,0,8.87,['8.87'],['hunt_et_al']
Cc1cc2cccc(c2nc1C)[OH:13],O,0,0,10.2,['10.2'],['hunt_et_al']
CCCc1ccc(c2c1cccn2)[OH:14],O,0,0,9.7,['9.7'],['hunt_et_al']
c1cc(cc(c1)O)[OH:7],O,0,0,9.15,['9.15'],['hunt_et_al']
c1cc(ccc1[OH:7])O,O,0,0,9.91,['9.91'],['hunt_et_al']
c1ccc2c(c1)CCC[NH2+:10]2,O,0,0,5.03,['5.03'],['hunt_et_al']
C[n+]1cc(cc2c1cccc2)[OH:12],O,0,0,5.39,['5.39'],['hunt_et_al']
C[n+]1cccc2c1ccc(c2)[OH:12],O,0,0,7.12,['7.12'],['hunt_et_al']
C[n+]1cccc2c1c(ccc2)[OH:12],O,0,0,6.78,['6.78'],['hunt_et_al']
c1ccc(c(c1)[OH:7])F,O,0,0,8.81,['8.81'],['hunt_et_al']
C1C[NH+:8]2CCC1CC2,O,0,0,10.95,['10.95'],['hunt_et_al']
c1ccc(cc1)[C@@H]2C[NH+:14]3CCC2CC3,O,0,0,10.23,['10.23'],['hunt_et_al']
c1ccc(cc1)C2=C[NH+:14]3CCC2CC3,O,0,0,9.1,['9.1'],['hunt_et_al']
c1ccc(c(c1)[OH:7])Cl,O,0,0,8.11,['8.11'],['hunt_et_al']
c1cc(cc(c1)Cl)[OH:7],O,0,0,9.08,['9.08'],['hunt_et_al']
c1cc(ccc1[OH:7])Cl,O,0,0,9.42,['9.42'],['hunt_et_al']
c1cc(c2c(c1)scn2)[OH:9],O,0,0,8.85,['8.85'],['hunt_et_al']
c1cc(ccc1[OH:7])Br,O,0,0,9.34,['9.34'],['hunt_et_al']
c1ccc2c(c1)cc(nn2)[OH:11],O,0,0,8.63,['8.63'],['hunt_et_al']
c1ccc2c(c1)c(cnn2)[OH:11],O,0,0,9.3,['9.3'],['hunt_et_al']
c1ccc(c(c1)[OH:7])I,O,0,0,8.46,['8.46'],['hunt_et_al']
c1cc2c(ccnn2)cc1[OH:11],O,0,0,7.55,['7.55'],['hunt_et_al']
c1cc(cc2c1ccnn2)[OH:11],O,0,0,7.59,['7.59'],['hunt_et_al']
c1cc2ccnnc2c(c1)[OH:11],O,0,0,8.22,['8.22'],['hunt_et_al']
Cc1cnnc2c1cccc2[OH:12],O,0,0,8.36,['8.36'],['hunt_et_al']
c1cc(ccc1[OH:7])I,O,0,0,9.2,['9.2'],['hunt_et_al']
c1cc2cncc(c2nc1)[OH:11],O,0,0,8.35,['8.35'],['hunt_et_al']
c1cc2ccnc(c2nc1)[OH:11],O,0,0,12.04,['12.04'],['hunt_et_al']
c1cc(ccc1C#N)[OH:9],O,0,0,7.95,['7.95'],['hunt_et_al']
Cc1cc(cc(c1C#N)C)[OH:11],O,0,0,8.21,['8.21'],['hunt_et_al']
c1cc(c(cc1Cl)Cc2cc(ccc2O)Cl)[OH:14],O,0,0,7.6,['7.6'],['hunt_et_al']
c1c(cc(c(c1Cc2cc(cc(c2O)Cl)Cl)[OH:14])Cl)Cl,O,0,0,10.65,['10.65'],['hunt_et_al']
c1ccc2c(c1)cnc(n2)[OH:11],O,0,0,10.73,['10.73'],['hunt_et_al']
c1ccc2c(c1)c(ncn2)[OH:11],O,0,0,9.87,['9.87'],['hunt_et_al']
c1cc2c(cncn2)c(c1)[OH:11],O,0,0,7.41,['7.41'],['hunt_et_al']
c1cc2c(cc1[OH:11])cncn2,O,0,0,8.21,['8.21'],['hunt_et_al']
c1cc2cncnc2c(c1)[OH:11],O,0,0,8.67,['8.67'],['hunt_et_al']
Cc1c2cccc(c2nc(n1)C)[OH:13],O,0,0,9.41,['9.41'],['hunt_et_al']
Cc1c2cccc(c2ncn1)[OH:12],O,0,0,8.77,['8.77'],['hunt_et_al']
Cc1cc(cc(c1N(=O)=O)C)[OH:12],O,0,0,8.25,['8.25'],['hunt_et_al']
c1ccc2c(c1)ncc(n2)[OH:11],O,0,0,9.14,['9.14'],['hunt_et_al']
c1cc2c(c(c1)[OH:11])nccn2,O,0,0,8.68,['8.68'],['hunt_et_al']
Cc1c(nc2ccccc2n1)[OH:12],O,0,0,9.9,['9.9'],['hunt_et_al']
Cc1cc(c(c(c1N(=O)=O)C)[OH:13])C,O,0,0,8.86,['8.86'],['hunt_et_al']
c1cc2cnc(nc2nc1)[OH:11],O,0,0,8.98,['8.98'],['hunt_et_al']
c1ccc2c(c1)cccc2S(=O)(=O)[OH:13],O,0,0,0.16,['0.16'],['hunt_et_al']
CC[NH+:10](CC)CP(=O)(OCC)OCC,O,0,0,6.4,['6.4'],['hunt_et_al']
CC[NH+:11](CC)CCOP(=O)(OCC)OCC,O,0,0,8.4,['8.4'],['hunt_et_al']
CCOP(=O)(OCC)OCC[NH+:9](C)C,O,0,0,8,['8.0'],['hunt_et_al']
CC(C)OP(=O)(OCC[NH+:11](C)C)OC(C)C,O,0,0,8.06,['8.06'],['hunt_et_al']
CC(C)OP(=O)(OC(C)C)SCC[NH+:11](C)C,O,0,0,7.7,['7.7'],['hunt_et_al']
CCO[P@@](=O)(C)SCC[NH+:8](C)C,O,0,0,7.77,['7.77'],['hunt_et_al']
C[NH2+:6]CCCCO,O,0,0,9.55,['9.55'],['hunt_et_al']
CC[C@@H](C[N@H+:9](CC)CCO)O,O,0,0,9.1,['9.1'],['hunt_et_al']
Cc1ccc(cc1)[C@@H]2C[C@H]2[NH3+:11],O,0,0,8.33,['8.33'],['hunt_et_al']
C1CCC(C1)[NH2+:11]C2CCCC2,O,0,0,10.93,['10.93'],['hunt_et_al']
c1cc2c3c(ccc(c3c1)[NH3+:13])CC2,O,0,0,4.58,['4.58'],['hunt_et_al']
C[NH+:7](C)CCCOC,O,0,0,9.4,['9.4'],['hunt_et_al']
CCC(C)(C)[NH2+:11]C(C)(C)C=C,O,0,0,10.8,['10.8'],['hunt_et_al']
CCC(C)(C)[NH2+:11]C(C)(C)C#C,O,0,0,9,['9.0'],['hunt_et_al']
CC[C@@H](C)C[C@@H](C)[NH3+:8],O,0,0,10.55,['10.55'],['hunt_et_al']
CCCCCC[N@@H+:13](CCO)C[C@H](CC)O,O,0,0,9,['9.0'],['hunt_et_al']
CC(C)(C)Sc1ccc(cc1)[NH3+:11],O,0,0,3.44,['3.44'],['hunt_et_al']
c1(c(c(c(c(c1F)F)F)F)F)[NH3+:7],O,0,0,-0.28,['-0.28'],['hunt_et_al']
c1cc(cc(c1)[NH3+:10])C(=O)OC(C(F)(F)F)(F)F,O,0,0,3.24,['3.24'],['hunt_et_al']
c1cc(ccc1C(=O)OC(C(F)(F)F)(F)F)[NH3+:10],O,0,0,3.78,['3.78'],['hunt_et_al']
c1ccc2c(c1)ccc-3c2Cc4c3ccc(c4)[NH3+:18],O,0,0,4.67,['4.67'],['hunt_et_al']
CC(C)(C)[NH+:9]1CCCC1,O,0,0,11.13,['11.13'],['hunt_et_al']
C[C@@H]1[C@H](C([NH2+:11]C1(C)C)(C)C)C,O,0,0,11.4,['11.4'],['hunt_et_al']
CC(=O)OCC[NH+:7](C)C,O,0,0,8.4,['8.4'],['hunt_et_al']
C(CCl)[NH3+:3],O,0,0,8.56,['8.56'],['hunt_et_al']
C(C(F)F)[NH3+:3],O,0,0,7.3,['7.3'],['hunt_et_al']
C(CF)[NH3+:3],O,0,0,9,['9.0'],['hunt_et_al']
CCCC(=O)OCC[NH+:9](C)C,O,0,0,8.31,['8.31'],['hunt_et_al']
CCCC(=O)SCC[NH+:9](C)C,O,0,0,8.32,['8.32'],['hunt_et_al']
CCC(=O)OCC[NH+:8](C)C,O,0,0,8.29,['8.29'],['hunt_et_al']
CCC(=O)SCC[NH+:8](C)C,O,0,0,8.28,['8.28'],['hunt_et_al']
CC[NH2+:7]C[Si](C)(C)C,O,0,0,11.12,['11.12'],['hunt_et_al']
CC(=O)OCCC[NH+:8](C)C,O,0,0,9,['9.0'],['hunt_et_al']