Solute SMILES,Solvent SMILES,Solute CAS,Solute IUPAC,pKa (avg),pKa (all),Source (all)
CC(=O)OCC[NH3+:5],O,0,0,9.1,['9.1'],['hunt_et_al']
C[NH+:7](C)CCN(C)C,O,0,0,9.1,['9.1'],['hunt_et_al']
C[NH+:7](C)CC[NH+](C)C,O,0,0,5.7,['5.7'],['hunt_et_al']
C[NH+:18](C)CCO[C@@H](c1ccccc1)c2ccc(cc2)Br,O,0,0,8.64,['8.64'],['hunt_et_al']
C(CCl)[NH+:7](CCCl)CCCl,O,0,0,4.37,['4.37'],['hunt_et_al']
CC[NH+:7](CC)CCCl,O,0,0,8.8,['8.8'],['hunt_et_al']
C[N@@H+:6](CCO)CCCl,O,0,0,7.48,['7.48'],['hunt_et_al']
CC[NH2+:19]CCC(=O)C(c1ccccc1)c2ccccc2,O,0,0,9.55,['9.55'],['hunt_et_al']
CC[NH+:5](C)C,O,0,0,10.2,['10.2'],['hunt_et_al']
C[NH+:5](C)CCO,O,0,0,9,['9.0'],['hunt_et_al']
CC[NH2+:5]CC,O,0,0,10.98,['10.98'],['hunt_et_al']
C(CO)[NH+:7](CCO)CCO,O,0,0,7.762,['7.762'],['hunt_et_al']
C(CO)[NH2+:5]CCO,O,0,0,8.883,['8.883'],['hunt_et_al']
C[NH+:6](CCO)CCO,O,0,0,8.52,['8.52'],['hunt_et_al']
c1cc(ccc1C(=O)[OH:9])Br,O,0,0,3.97,['3.97'],['hunt_et_al']
CCC[NH3+:4],O,0,0,10.69,['10.69'],['hunt_et_al']
CC(C)[NH3+:4],O,0,0,10.63,['10.63'],['hunt_et_al']
C(C[NH3+:4])CBr,O,0,0,8.93,['8.93'],['hunt_et_al']
CC(CO)(CO)[NH3+:5],O,0,0,8.801,['8.801'],['hunt_et_al']
CC(C)(C)C[NH3+:6],O,0,0,10.15,['10.15'],['hunt_et_al']
C(C[NH3+:4])CO,O,0,0,9.96,['9.96'],['hunt_et_al']
c1ccc(c(c1)C#N)C(=O)[OH:11],O,0,0,3.14,['3.14'],['hunt_et_al']
C[C@@H](CO)[NH3+:4],O,0,0,9.43,['9.43'],['hunt_et_al']
C(C[NH3+:4])C(Cl)(Cl)Cl,O,0,0,9.65,['9.65'],['hunt_et_al']
c1cc(cc(c1)C(=O)[OH:11])C#N,O,0,0,3.598,['3.598'],['hunt_et_al']
CCC[NH+:8](CCCl)CCCl,O,0,0,6.68,['6.68'],['hunt_et_al']
CC[NH+:12](CC)CCCN(CC)CC,O,0,0,10.18,['10.18'],['hunt_et_al']
CC[NH+:12](CC)CCC[NH+](CC)CC,O,0,0,8.2,['8.2'],['hunt_et_al']
C[C@H](C[NH+:11](C[C@@H](C)O)C(C)(C)C)O,O,0,0,9.4,['9.4'],['hunt_et_al']
C[C@H](CCC(c1ccccc1)(c2ccccc2)C(=O)O)[NH+:21](C)C,O,0,0,10.88,['10.88'],['hunt_et_al']
C[C@H](CCC(c1ccccc1)(c2ccccc2)C(=O)[O-])[NH+:21](C)C,O,0,0,10.88,['10.88'],['hunt_et_al']
CC[NH+:22](CC)CCC(C#N)(c1ccccc1)c2ccccc2,O,0,0,9.08,['9.08'],['hunt_et_al']
c1c(cc(c(c1O)O)O)C(=O)[OH:12],O,0,0,4.21,['4.21'],['hunt_et_al']
CC(C)(C[NH3+:6])CN,O,0,0,10.22,['10.22'],['hunt_et_al']
CC(C)(C[NH3+:6])C[NH3+],O,0,0,8.18,['8.18'],['hunt_et_al']
CC(C)C[NH+:13](CC(C)C)CC(C)C,O,0,0,10.32,['10.32'],['hunt_et_al']
c1cc(ccc1C(=O)[OH:12])N(=O)=O,O,0,0,3.42,['3.42'],['hunt_et_al']
CCC[NH+:6](C)C,O,0,0,10.2,['10.2'],['hunt_et_al']
CC(C)[NH+:6](C)C,O,0,0,10.47,['10.47'],['hunt_et_al']
C[NH+:18](C)CCC(c1ccccc1)c2ccccc2,O,0,0,9.35,['9.35'],['hunt_et_al']
CCOC(=O)C(CC[NH+:21](C)C)(c1ccccc1)c2ccccc2,O,0,0,9.87,['9.87'],['hunt_et_al']
CCOC(=O)C(C[C@H](C)[NH+:22](C)C)(c1ccccc1)c2ccccc2,O,0,0,10.12,['10.12'],['hunt_et_al']
CCC(=O)C(CC[NH+:21](C)C)(c1ccccc1)c2ccccc2,O,0,0,9.18,['9.18'],['hunt_et_al']
CCC[NH+:10](CCC)CCC,O,0,0,10.26,['10.26'],['hunt_et_al']
C[C@H](C[NH2+:6]CCO)O,O,0,0,9.4,['9.4'],['hunt_et_al']
C[C@H](C[NH2+:7]C(C)C)O,O,0,0,10,['10.0'],['hunt_et_al']
CC(C)[NH2+:7]C(C)C,O,0,0,10.96,['10.96'],['hunt_et_al']
CCC[NH2+:7]CCC,O,0,0,11,['11.0'],['hunt_et_al']
C=CC[NH2+:7]CC=C,O,0,0,9.29,['9.29'],['hunt_et_al']
C[NH+:8](CC=C)CC=C,O,0,0,8.79,['8.79'],['hunt_et_al']
C[NH2+:5]CC=C,O,0,0,10.11,['10.11'],['hunt_et_al']
C#CC[NH3+:4],O,0,0,8.15,['8.15'],['hunt_et_al']
CC(=O)CCCC[NH+:9](C)C,O,0,0,9.6,['9.6'],['hunt_et_al']
CC[C@@H](C)[NH3+:5],O,0,0,10.56,['10.56'],['hunt_et_al']
CC[C@H](C)C[NH3+:6],O,0,0,10.64,['10.64'],['hunt_et_al']
CC(C)CC[NH3+:6],O,0,0,10.6,['10.6'],['hunt_et_al']
c1cc(c(c(c1)N(=O)=O)C(=O)[OH:15])N(=O)=O,O,0,0,1.14,['1.14'],['hunt_et_al']
CCC(C)(C)[NH3+:6],O,0,0,10.72,['10.72'],['hunt_et_al']
CCCC[NH+:9](CCCl)CCCl,O,0,0,6.61,['6.61'],['hunt_et_al']
CCCC[NH+:11](C[C@@H](C)O)C[C@@H](C)O,O,0,0,9.3,['9.3'],['hunt_et_al']
CCCC[NH2+:9]CCCC,O,0,0,11.25,['11.25'],['hunt_et_al']
CC[NH+:11](CC)CCCCC#N,O,0,0,10.08,['10.08'],['hunt_et_al']
c1cc(c(cc1C(=O)[OH:15])N(=O)=O)N(=O)=O,O,0,0,2.82,['2.82'],['hunt_et_al']
CCCC[NH+:7](C)C,O,0,0,10.2,['10.2'],['hunt_et_al']
CCC[C@@H](C)[NH+:8](C)C,O,0,0,10.57,['10.57'],['hunt_et_al']
CC(C)CC[NH2+:11]CCC(C)C,O,0,0,10.94,['10.94'],['hunt_et_al']
c1c(cc(cc1N(=O)=O)N(=O)=O)C(=O)[OH:15],O,0,0,2.82,['2.82'],['hunt_et_al']
C[C@@H](C=C(c1cccs1)c2cccs2)[NH+:15](C)C,O,0,0,8.9,['8.9'],['hunt_et_al']
C(C[NH3+:5])C=C(Cl)Cl,O,0,0,10.12,['10.12'],['hunt_et_al']
CCCCC[NH3+:6],O,0,0,10.63,['10.63'],['hunt_et_al']
C(CC[NH3+:6])CCBr,O,0,0,9.62,['9.62'],['hunt_et_al']
Cc1c(cc(cc1N(=O)=O)C(=O)[OH:16])N(=O)=O,O,0,0,2.97,['2.97'],['hunt_et_al']
C(CC[NH3+:6])CCO,O,0,0,10.46,['10.46'],['hunt_et_al']
CCC(C)(CC)[NH3+:7],O,0,0,10.63,['10.63'],['hunt_et_al']
C(CC[NH3+:6])CC(Cl)(Cl)Cl,O,0,0,10.12,['10.12'],['hunt_et_al']
CCCCC[NH2+:11]CCCCC,O,0,0,11.16,['11.16'],['hunt_et_al']
CCCCC[NH+:12](C[C@@H](C)O)C[C@@H](C)O,O,0,0,9,['9.0'],['hunt_et_al']
c1c(cc(c(c1N(=O)=O)C(=O)[OH:18])N(=O)=O)N(=O)=O,O,0,0,0.65,['0.65'],['hunt_et_al']
CC[NH+:12](CC)CCCCCC#N,O,0,0,10.46,['10.46'],['hunt_et_al']
CC(C)C(C(C)C)[NH+:10](C)C,O,0,0,9.96,['9.96'],['hunt_et_al']
CCCCCC[NH3+:7],O,0,0,10.64,['10.64'],['hunt_et_al']
C(CCCBr)CC[NH3+:7],O,0,0,10.6,['10.6'],['hunt_et_al']
C/C(=N\O)/C(C)(C)CCC[NH3+:10],O,0,0,9.14,['9.14'],['hunt_et_al']
CCCCCC[NH+:13](C[C@@H](C)O)C[C@@H](C)O,O,0,0,8.5,['8.5'],['hunt_et_al']
CCCCCC[NH2+:13]CCCCCC,O,0,0,11.01,['11.01'],['hunt_et_al']
CCCCC[C@@H](C)[NH3+:8],O,0,0,10.67,['10.67'],['hunt_et_al']
CCCCCC(C)(C)[NH3+:9],O,0,0,10.56,['10.56'],['hunt_et_al']
C[C@@H](CCCC(C)C)[NH3+:9],O,0,0,10.28,['10.28'],['hunt_et_al']
CCCC[C@@H](CC)CO[NH+:15](C[C@@H](C)O)C[C@@H](C)O,O,0,0,7.7,['7.7'],['hunt_et_al']
CCCCC[C@@H](C)[NH2+:9]C,O,0,0,10.82,['10.82'],['hunt_et_al']
CCCCCCCC[NH3+:9],O,0,0,10.65,['10.65'],['hunt_et_al']
CCCCCC[C@@H](C)[NH3+:9],O,0,0,10.49,['10.49'],['hunt_et_al']
C/C(=N\O)/C(C)(C)CCCCC[NH3+:12],O,0,0,9.12,['9.12'],['hunt_et_al']
CCCCC[C@@H](C(C)(C)[NH3+:10])O,O,0,0,9.85,['9.85'],['hunt_et_al']
CCCCCCCC[NH+:15](C[C@@H](C)O)C[C@@H](C)O,O,0,0,8.3,['8.3'],['hunt_et_al']
CCCCCCCC[NH2+:17]CCCCCCCC,O,0,0,11.01,['11.01'],['hunt_et_al']
CCCCCCCCC[NH3+:10],O,0,0,10.64,['10.64'],['hunt_et_al']
CCCCCCCCCC[NH3+:11],O,0,0,10.64,['10.64'],['hunt_et_al']
CCCCCCCCCCC[NH3+:12],O,0,0,10.63,['10.63'],['hunt_et_al']
CCCCCCCCCCCC[NH3+:13],O,0,0,10.63,['10.63'],['hunt_et_al']
C1CCC(=[NH2+:6])C1,O,0,0,8.95,['8.95'],['hunt_et_al']
C1CCC(CC1)[NH3+:7],O,0,0,10.68,['10.68'],['hunt_et_al']
C1CC[C@@H]([C@H](C1)[NH3+:7])Cl,O,0,0,9.49,['9.49'],['hunt_et_al']
C1CC[C@H]([C@@H](C1)[NH3+:7])O,O,0,0,9.53,['9.53'],['hunt_et_al']
C[C@H]1CCC[C@H]([C@@H]1[NH3+:8])O,O,0,0,9.39,['9.39'],['hunt_et_al']
CC1CCC(CC1)[NH3+:8],O,0,0,10.48,['10.48'],['hunt_et_al']
CCCOc1ccc(cc1)C(=O)[OH:12],O,0,0,4.78,['4.78'],['hunt_et_al']
C[C@H](CC1CCCCC1)[NH3+:10],O,0,0,10.14,['10.14'],['hunt_et_al']
C[NH2+:8][C@H]1CCCC[C@@H]1Cl,O,0,0,9.85,['9.85'],['hunt_et_al']
c1ccc(cc1)C(c2ccccc2)[NH2+:21]CC3CCCCC3,O,0,0,6.95,['6.95'],['hunt_et_al']
C[NH+:9](C)[C@@H]1CCCC[C@H]1O,O,0,0,10.32,['10.32'],['hunt_et_al']
C[C@H](CC1CCCCC1)[NH2+:11]C,O,0,0,10.52,['10.52'],['hunt_et_al']
CC[C@H](C)C[NH2+:12]C1CCCCC1,O,0,0,11.09,['11.09'],['hunt_et_al']
C[Si](C)(C)C[NH2+:11]C1CCCCC1,O,0,0,10.96,['10.96'],['hunt_et_al']
C1CCC(=[NH2+:7])CC1,O,0,0,9.15,['9.15'],['hunt_et_al']
C[NH+:8]=C1CCCCC1,O,0,0,9.43,['9.43'],['hunt_et_al']
C1CC=C[C@H](C1)[NH3+:7],O,0,0,10.42,['10.42'],['hunt_et_al']
CC1=CCCC[C@@H]1[NH3+:8],O,0,0,10.37,['10.37'],['hunt_et_al']
CC(C)Oc1cccc(c1)C(=O)[OH:12],O,0,0,4.15,['4.15'],['hunt_et_al']
c1ccc(cc1)[NH3+:7],O,0,0,4.64,['4.64'],['hunt_et_al']
CC(=O)c1ccccc1[NH3+:9],O,0,0,2.22,['2.22'],['hunt_et_al']
CC(=O)c1cccc(c1)[NH3+:9],O,0,0,3.56,['3.56'],['hunt_et_al']
CC(=O)c1ccc(cc1)[NH3+:9],O,0,0,2.2,['2.2'],['hunt_et_al']
CC(C)Oc1ccc(cc1)C(=O)[OH:12],O,0,0,4.68,['4.68'],['hunt_et_al']
c1ccc(cc1)C(=O)c2ccc(cc2)[NH3+:14],O,0,0,2.17,['2.17'],['hunt_et_al']
c1ccc(c(c1)[NH3+:7])Br,O,0,0,2.53,['2.53'],['hunt_et_al']
c1cc(cc(c1)Br)[NH3+:7],O,0,0,3.58,['3.58'],['hunt_et_al']
c1cc(ccc1[NH3+:7])Br,O,0,0,3.86,['3.86'],['hunt_et_al']
CC(C)(C)[NH2+:11]c1ccc(cc1)Br,O,0,0,5.93,['5.93'],['hunt_et_al']
C[NH+:9](C)c1ccccc1Br,O,0,0,4.31,['4.31'],['hunt_et_al']
C[NH+:9](C)c1ccc(cc1)Br,O,0,0,4.232,['4.232'],['hunt_et_al']
COc1ccc(cc1Br)[NH3+:8],O,0,0,4.08,['4.08'],['hunt_et_al']
Cc1ccc(cc1Br)[NH3+:8],O,0,0,3.98,['3.98'],['hunt_et_al']
Cc1cc(ccc1[NH3+:8])Br,O,0,0,3.58,['3.58'],['hunt_et_al']
c1ccc(cc1)Oc2ccccc2C(=O)[OH:15],O,0,0,3.53,['3.53'],['hunt_et_al']
CCCCOC(=O)c1ccc(cc1)[NH3+:12],O,0,0,2.472,['2.472'],['hunt_et_al']
CCCC[NH2+:11]c1ccccc1,O,0,0,5.12,['5.12'],['hunt_et_al']
CCCCc1ccccc1[NH3+:11],O,0,0,4.26,['4.26'],['hunt_et_al']
CC(C)(C)c1ccccc1[NH3+:11],O,0,0,5.03,['5.03'],['hunt_et_al']
CC(C)(C)c1cccc(c1)[NH3+:11],O,0,0,4.66,['4.66'],['hunt_et_al']
CC(C)(C)c1ccc(cc1)[NH3+:11],O,0,0,4.95,['4.95'],['hunt_et_al']
CC(C)(C)[N@H+:12](C)c1ccccc1,O,0,0,7.39,['7.39'],['hunt_et_al']
c1ccc(c(c1)[NH3+:7])Cl,O,0,0,2.65,['2.65'],['hunt_et_al']
c1cc(cc(c1)Cl)[NH3+:7],O,0,0,3.46,['3.46'],['hunt_et_al']
c1cc(ccc1[NH3+:7])Cl,O,0,0,4.15,['4.15'],['hunt_et_al']
C[NH+:9](C)c1cccc(c1)Cl,O,0,0,3.87,['3.87'],['hunt_et_al']
C[NH+:9](C)c1ccc(cc1)Cl,O,0,0,4.395,['4.395'],['hunt_et_al']
c1ccc(cc1)Oc2ccc(cc2)C(=O)[OH:15],O,0,0,4.52,['4.52'],['hunt_et_al']
C[NH2+:8]c1ccc(cc1)Cl,O,0,0,3.9,['3.9'],['hunt_et_al']
Cc1ccc(cc1Cl)[NH3+:8],O,0,0,4.05,['4.05'],['hunt_et_al']
C[NH2+:8]c1ccc(cc1N(=O)=O)Cl,O,0,0,-1.49,['-1.49'],['hunt_et_al']
c1cc(c(cc1Cl)N(=O)=O)[NH3+:7],O,0,0,-1.02,['-1.02'],['hunt_et_al']
c1cc(c(cc1[NH3+:7])N(=O)=O)Cl,O,0,0,1.9,['1.9'],['hunt_et_al']
c1cc(c(cc1Cl)[NH3+:7])N(=O)=O,O,0,0,-1.52,['-1.52'],['hunt_et_al']
c1ccc(c(c1)C#N)[NH3+:9],O,0,0,0.95,['0.95'],['hunt_et_al']
c1cc(cc(c1)[NH3+:9])C#N,O,0,0,2.748,['2.748'],['hunt_et_al']
c1cc(ccc1C#N)[NH3+:9],O,0,0,1.739,['1.739'],['hunt_et_al']
c1cc(c(c(c1)Cl)CO)C(=O)[OH:10],O,0,0,3.27,['3.27'],['hunt_et_al']
c1ccc(cc1)[NH2+:13]C2CCCCC2,O,0,0,5.6,['5.6'],['hunt_et_al']
C[N@@H+:13](c1ccccc1)C2CCCC2,O,0,0,6.71,['6.71'],['hunt_et_al']
Cc1ccccc1[NH2+:13]C2CCCC2,O,0,0,5.07,['5.07'],['hunt_et_al']
c1cc(c(c(c1)Cl)C(=O)[OH:10])CO,O,0,0,2.26,['2.26'],['hunt_et_al']
c1cc(c(c(c1)Br)[NH3+:7])Br,O,0,0,0.35,['0.35'],['hunt_et_al']
c1c(cc(cc1Br)Br)[NH3+:7],O,0,0,2.34,['2.34'],['hunt_et_al']
COc1c(cc(cc1Br)[NH3+:8])Br,O,0,0,2.98,['2.98'],['hunt_et_al']
Cc1cc(c(c(c1)Br)[NH3+:8])Br,O,0,0,0.69,['0.69'],['hunt_et_al']
CCCC[NH+:15](CCCC)c1ccccc1,O,0,0,6.3,['6.3'],['hunt_et_al']
CC(C)(C)c1cc(cc(c1)[NH3+:15])C(C)(C)C,O,0,0,4.97,['4.97'],['hunt_et_al']
c1cc(c(c(c1)N(=O)=O)Cl)C(=O)[OH:12],O,0,0,2.02,['2.02'],['hunt_et_al']
CC(C)(C)c1cc(cc(c1N(=O)=O)C(C)(C)C)[NH3+:15],O,0,0,2.93,['2.93'],['hunt_et_al']
c1cc(c(cc1Cl)[NH3+:7])Cl,O,0,0,1.57,['1.57'],['hunt_et_al']
C[NH+:9](C)c1c(cc(cc1Cl)N(=O)=O)Cl,O,0,0,-0.23,['-0.23'],['hunt_et_al']
CC[NH+:11](CC)c1ccc(cc1N(=O)=O)N(=O)=O,O,0,0,0.18,['0.18'],['hunt_et_al']
c1cc(c(cc1N(=O)=O)C(=O)[OH:12])Cl,O,0,0,2.17,['2.17'],['hunt_et_al']
CC[NH+:12](CC)c1ccc(cc1)C,O,0,0,7.13,['7.13'],['hunt_et_al']
CC(C)[NH+:13](c1ccccc1)C(C)C,O,0,0,7.37,['7.37'],['hunt_et_al']
C[NH+:9](C)c1ccccc1,O,0,0,5.068,['5.068'],['hunt_et_al']
c1cc(c(c(c1)Cl)C(=O)[OH:12])N(=O)=O,O,0,0,1.34,['1.34'],['hunt_et_al']
Cc1ccc(cc1)[NH2+:9]C,O,0,0,5.36,['5.36'],['hunt_et_al']
Cc1ccc(c(c1)C)[NH3+:9],O,0,0,4.89,['4.89'],['hunt_et_al']
Cc1ccc(cc1C)[NH3+:9],O,0,0,5.17,['5.17'],['hunt_et_al']
C[NH+:9](C)c1ccc(cc1N(=O)=O)N(=O)=O,O,0,0,-1,['-1.0'],['hunt_et_al']
C[NH+:9](C)c1cccc(c1)N(=O)=O,O,0,0,2.626,['2.626'],['hunt_et_al']
C[NH+:9](C)c1ccc(cc1)N(=O)=O,O,0,0,0.607,['0.607'],['hunt_et_al']
Cc1cc(cc(c1[NH3+:9])C)N(=O)=O,O,0,0,0.98,['0.98'],['hunt_et_al']
Cc1cc(cc(c1N(=O)=O)C)[NH3+:9],O,0,0,2.59,['2.59'],['hunt_et_al']
c1cc(c(c(c1)Br)C(=O)[OH:10])CO,O,0,0,2.25,['2.25'],['hunt_et_al']
C[NH+:10](C)c1cccc(c1)C(F)(F)F,O,0,0,3.27,['3.27'],['hunt_et_al']
CCC[NH+:13](CCC)c1ccccc1,O,0,0,5.68,['5.68'],['hunt_et_al']
CCOc1ccccc1[NH3+:9],O,0,0,4.43,['4.43'],['hunt_et_al']
CCOc1cccc(c1)[NH3+:9],O,0,0,4.18,['4.18'],['hunt_et_al']
CCOc1ccc(cc1)[NH3+:9],O,0,0,5.2,['5.2'],['hunt_et_al']
CCOC(=O)c1ccccc1[NH3+:10],O,0,0,2.18,['2.18'],['hunt_et_al']
c1cc(c(c(c1)Br)C(=O)[OH:12])N(=O)=O,O,0,0,1.37,['1.37'],['hunt_et_al']
CC[NH2+:9]c1ccccc1,O,0,0,5.12,['5.12'],['hunt_et_al']
CCc1ccccc1[NH3+:9],O,0,0,4.37,['4.37'],['hunt_et_al']
CC[N@H+:10](C)c1ccccc1,O,0,0,6.02,['6.02'],['hunt_et_al']
c1ccc(c(c1)[NH3+:7])F,O,0,0,3.2,['3.2'],['hunt_et_al']
c1cc(cc(c1)F)[NH3+:7],O,0,0,3.5,['3.5'],['hunt_et_al']
c1cc(ccc1[NH3+:7])F,O,0,0,4.65,['4.65'],['hunt_et_al']
c1cc(ccc1C=O)[NH3+:8],O,0,0,1.76,['1.76'],['hunt_et_al']
CCCCCC[NH2+:13]c1ccccc1,O,0,0,5.42,['5.42'],['hunt_et_al']
CC(C)C(C)(C)[NH2+:13]c1ccccc1,O,0,0,6.3,['6.3'],['hunt_et_al']
c1cc(cc(c1)I)[NH3+:7],O,0,0,3.61,['3.61'],['hunt_et_al']
c1cc(ccc1[NH3+:7])I,O,0,0,3.78,['3.78'],['hunt_et_al']
CC(C)C[NH2+:11]c1ccccc1,O,0,0,4.43,['4.43'],['hunt_et_al']
CC(C)C[N@@H+:12](C)c1ccccc1,O,0,0,5.2,['5.2'],['hunt_et_al']
CC(C)[NH2+:10]c1ccccc1,O,0,0,5.77,['5.77'],['hunt_et_al']
CC(C)c1ccccc1[NH3+:10],O,0,0,4.42,['4.42'],['hunt_et_al']
COc1ccccc1[NH3+:8],O,0,0,4.52,['4.52'],['hunt_et_al']
COc1cccc(c1)[NH3+:8],O,0,0,4.2,['4.2'],['hunt_et_al']
COc1cccc(c1CO)C(=O)[OH:11],O,0,0,3.58,['3.58'],['hunt_et_al']
COC(=O)c1ccccc1[NH3+:9],O,0,0,2.23,['2.23'],['hunt_et_al']
COC(=O)c1cccc(c1)[NH3+:9],O,0,0,3.55,['3.55'],['hunt_et_al']
COC(=O)c1ccc(cc1)[NH3+:9],O,0,0,2.465,['2.465'],['hunt_et_al']
C[NH+:11](C)c1ccccc1C(=O)OC,O,0,0,3.78,['3.78'],['hunt_et_al']
C[NH+:11](C)c1cccc(c1)C(=O)OC,O,0,0,3.86,['3.86'],['hunt_et_al']
C[NH2+:10]c1ccccc1C(=O)OC,O,0,0,3.53,['3.53'],['hunt_et_al']
C[NH2+:10]c1ccc(cc1)C(=O)OC,O,0,0,2.32,['2.32'],['hunt_et_al']
C[NH+:10](C)c1ccc(cc1)OC,O,0,0,5.854,['5.854'],['hunt_et_al']
COc1cc(cc(c1)N(=O)=O)[NH3+:8],O,0,0,2.11,['2.11'],['hunt_et_al']
C[NH2+:8]c1ccccc1,O,0,0,4.848,['4.848'],['hunt_et_al']
Cc1cccc(c1)[NH3+:8],O,0,0,4.69,['4.69'],['hunt_et_al']
Cc1ccc(cc1)[NH3+:8],O,0,0,5.1,['5.1'],['hunt_et_al']
Cc1ccc(cc1N(=O)=O)[NH3+:8],O,0,0,2.96,['2.96'],['hunt_et_al']
CS(=O)(=O)c1cccc(c1)[NH3+:8],O,0,0,2.561,['2.561'],['hunt_et_al']
CS(=O)(=O)c1ccc(cc1)[NH3+:8],O,0,0,1.35,['1.35'],['hunt_et_al']
CSc1cccc(c1)[NH3+:8],O,0,0,4,['4.0'],['hunt_et_al']
CSc1ccc(cc1)[NH3+:8],O,0,0,4.35,['4.35'],['hunt_et_al']
c1ccc(c(c1)[NH3+:7])N(=O)=O,O,0,0,-0.26,['-0.26'],['hunt_et_al']
c1cc(cc(c1)N(=O)=O)[NH3+:7],O,0,0,2.466,['2.466'],['hunt_et_al']
CCC(C)(C)[NH2+:12]c1ccccc1,O,0,0,6.75,['6.75'],['hunt_et_al']
c1ccc(cc1)[NH2+:13]c2ccccc2,O,0,0,0.79,['0.79'],['hunt_et_al']
CCCOC(=O)c1ccc(cc1)[NH3+:11],O,0,0,2.487,['2.487'],['hunt_et_al']
CCC[NH2+:10]c1ccccc1,O,0,0,4.79,['4.79'],['hunt_et_al']
CCCc1ccccc1[NH3+:10],O,0,0,4.36,['4.36'],['hunt_et_al']
c1cc(cc(c1)S(=O)(=O)N)[NH3+:7],O,0,0,2.9,['2.9'],['hunt_et_al']
Cc1cccc(c1[NH+:11](C)C)C,O,0,0,4.3,['4.3'],['hunt_et_al']
Cc1c(c(c(c(c1[NH3+:11])C)C)N(=O)=O)C,O,0,0,2.36,['2.36'],['hunt_et_al']
c1cc(cc(c1)[NH3+:8])C(F)(F)F,O,0,0,3.49,['3.49'],['hunt_et_al']
c1cc(ccc1C(F)(F)F)[NH3+:8],O,0,0,2.45,['2.45'],['hunt_et_al']
Cc1ccccc1[NH+:10](C)C,O,0,0,6.11,['6.11'],['hunt_et_al']
Cc1cccc(c1)[NH+:10](C)C,O,0,0,5.344,['5.344'],['hunt_et_al']
CS(=O)(=O)c1cccc(c1)C(=O)[OH:12],O,0,0,3.52,['3.52'],['hunt_et_al']
Cc1ccc(cc1)[NH+:10](C)C,O,0,0,5.627,['5.627'],['hunt_et_al']
Cc1cc(c(c(c1)C)[NH3+:10])C,O,0,0,4.38,['4.38'],['hunt_et_al']
Cc1cc(cc(c1C)C)[NH3+:10],O,0,0,5.12,['5.12'],['hunt_et_al']
C[Si](C)(C)c1cccc(c1)[NH3+:10],O,0,0,4.64,['4.64'],['hunt_et_al']
C[Si](C)(C)c1ccc(cc1)[NH3+:10],O,0,0,4.36,['4.36'],['hunt_et_al']
C[N+](C)(C)c1cccc(c1)[NH3+:10],O,0,0,2.22,['2.22'],['hunt_et_al']
CS(=O)(=O)c1ccc(cc1)C(=O)[OH:12],O,0,0,3.64,['3.64'],['hunt_et_al']
C[N+](C)(C)c1ccc(cc1)[NH3+:10],O,0,0,2.44,['2.44'],['hunt_et_al']
C[NH+:12](C)c1cccc(c1)[N+](C)(C)C,O,0,0,2.6,['2.6'],['hunt_et_al']
C[NH+:12](C)c1ccc(cc1)[N+](C)(C)C,O,0,0,2.64,['2.64'],['hunt_et_al']
c1ccc2cc3c(cccc3[NH3+:15])cc2c1,O,0,0,4.1,['4.1'],['hunt_et_al']
c1ccc2c(c1)C(=O)c3cccc(c3C2=O)C(=O)[OH:19],O,0,0,3.37,['3.37'],['hunt_et_al']
c1ccc2c(c1)C(=O)c3ccc(cc3C2=O)C(=O)[OH:19],O,0,0,3.42,['3.42'],['hunt_et_al']
c1ccc(cc1)/N=N/c2ccc(cc2)[OH:15],O,0,0,8.2,['8.2'],['hunt_et_al']
Cc1cc(c(c(c1)C)/N=N/c2c(cc(cc2C)[OH:20])C)C,O,0,0,8.2,['8.2'],['hunt_et_al']
c1ccc(cc1)CCCC[NH3+:11],O,0,0,10.5,['10.5'],['hunt_et_al']
c1cc(c(cc1CC[NH3+:9])O)O,O,0,0,8.87,['8.87'],['hunt_et_al']
CC[C@@H]([C@H](c1ccc(c(c1)O)O)O)[NH3+:11],O,0,0,8.42,['8.42'],['hunt_et_al']
Cc1ccccc1CC(=O)[OH:11],O,0,0,4.35,['4.35'],['hunt_et_al']
c1cc(ccc1[C@H](C[NH3+:9])O)O,O,0,0,9.53,['9.53'],['hunt_et_al']
C[C@H]([C@H](c1ccccc1)O)[NH3+:10],O,0,0,9.05,['9.05'],['hunt_et_al']
C[C@H]([C@H](c1ccc(cc1)O)O)[NH3+:10],O,0,0,8.7,['8.7'],['hunt_et_al']
CC(C)(c1ccccc1)[NH3+:10],O,0,0,10.27,['10.27'],['hunt_et_al']
C[Si](C)(C[NH3+:10])c1ccccc1,O,0,0,10.36,['10.36'],['hunt_et_al']
CC(C)(C[NH3+:11])c1ccccc1,O,0,0,10.03,['10.03'],['hunt_et_al']
c1ccc(cc1)CCC(CCc2ccccc2)[NH3+:18],O,0,0,8.8,['8.8'],['hunt_et_al']
c1ccc(cc1)CC(Cc2ccccc2)[NH3+:16],O,0,0,8,['8.0'],['hunt_et_al']
C[C@H](Cc1ccc(c(c1)OC)OC)[NH3+:12],O,0,0,9.6,['9.6'],['hunt_et_al']
CC(C)c1ccc(cc1)CC(=O)[OH:13],O,0,0,4.39,['4.39'],['hunt_et_al']
C[C@H](Cc1ccc(cc1)O)[NH3+:10],O,0,0,9.7,['9.7'],['hunt_et_al']
C[C@H](Cc1ccc(cc1)OC)[NH3+:11],O,0,0,9.99,['9.99'],['hunt_et_al']
c1ccc(cc1)CCC[NH2+:25]C(CC2CCCCC2)CC3CCCCC3,O,0,0,7.8,['7.8'],['hunt_et_al']
CC[NH+:14](CC)CCOC(=O)c1ccc(cc1)Br,O,0,0,8.12,['8.12'],['hunt_et_al']
CC[NH+:14](CC)CCOC(=O)c1ccc(cc1)Cl,O,0,0,8.08,['8.08'],['hunt_et_al']
c1ccc(cc1)C(=[NH2+:14])c2ccccc2Cl,O,0,0,5.59,['5.59'],['hunt_et_al']
c1ccc(cc1)C(=[NH2+:14])c2cccc(c2)Cl,O,0,0,5.69,['5.69'],['hunt_et_al']
C[C@H](Cc1ccccc1)[NH2+:14]CCC#N,O,0,0,7.23,['7.23'],['hunt_et_al']
c1ccc(cc1)CCC[NH2+:25]C(Cc2ccccc2)Cc3ccccc3,O,0,0,7.2,['7.2'],['hunt_et_al']
CC(C)[C@H]([C@@H](c1ccc(c(c1)O)O)O)[NH2+:15]C(C)C,O,0,0,8.85,['8.85'],['hunt_et_al']
c1ccc(cc1)C(c2ccccc2)C(=O)[OH:16],O,0,0,3.94,['3.94'],['hunt_et_al']
C[NH2+:10]C[C@@H](c1ccc(c(c1)O)O)O,O,0,0,8.71,['8.71'],['hunt_et_al']
c1ccc(cc1)[NH2+:15]C[C@@H](c2ccc(c(c2)O)O)O,O,0,0,8.85,['8.85'],['hunt_et_al']
CCC[NH2+:12]C[C@@H](c1ccc(c(c1)O)O)O,O,0,0,8.57,['8.57'],['hunt_et_al']
C[NH2+:10]CCc1ccc(c(c1)O)O,O,0,0,8.9,['8.9'],['hunt_et_al']
C[C@H](Cc1ccc(c(c1)OC)OC)[NH2+:13]C,O,0,0,9.81,['9.81'],['hunt_et_al']
C[NH+:11](C)C[C@@H](c1ccc(cc1)O)O,O,0,0,9.56,['9.56'],['hunt_et_al']
C[C@H](Cc1ccccc1)[NH+:12](C)C,O,0,0,9.4,['9.4'],['hunt_et_al']
c1ccc(cc1)C(c2ccccc2)(c3ccccc3)C(=O)[OH:22],O,0,0,3.96,['3.96'],['hunt_et_al']
c1ccc(cc1)C(=[NH2+:14])c2ccccc2O,O,0,0,5,['5.0'],['hunt_et_al']
c1ccc(cc1)C(=[NH2+:14])c2cccc(c2)O,O,0,0,5.08,['5.08'],['hunt_et_al']
CC(C)[NH2+:12]CC(=O)c1ccc(cc1)O,O,0,0,7.53,['7.53'],['hunt_et_al']
C[C@H]([C@H](c1ccccc1)O)[NH2+:11]C,O,0,0,9.61,['9.61'],['hunt_et_al']
c1ccc(cc1)C(=[NH2+:14])c2ccccc2,O,0,0,7.18,['7.18'],['hunt_et_al']
COc1ccc(c(c1)OC)C(=[NH2+:16])c2ccccc2,O,0,0,8.3,['8.3'],['hunt_et_al']
Cc1ccc(c(c1)C)C(=[NH2+:16])c2ccccc2,O,0,0,6.79,['6.79'],['hunt_et_al']
Cc1ccc(c(c1)C(=[NH2+:16])c2ccccc2)C,O,0,0,6.79,['6.79'],['hunt_et_al']
Cc1cccc(c1C(=[NH2+:16])c2ccccc2)C,O,0,0,6.29,['6.29'],['hunt_et_al']
Cc1cc(cc(c1)C(=[NH2+:16])c2ccccc2)C,O,0,0,7.18,['7.18'],['hunt_et_al']
COc1cccc(c1)C(=[NH2+:15])c2ccccc2,O,0,0,6.59,['6.59'],['hunt_et_al']
CC(C)[NH2+:12]CCc1ccccc1,O,0,0,10.02,['10.02'],['hunt_et_al']
C[NH2+:12]CCCCc1ccccc1,O,0,0,10.8,['10.8'],['hunt_et_al']
C[C@@H](C[NH2+:11]C)c1ccccc1,O,0,0,10.07,['10.07'],['hunt_et_al']
c1ccc(cc1)C[NH3+:8],O,0,0,9.62,['9.62'],['hunt_et_al']
c1ccc(cc1)C[NH2+:23]C(CC2CCCCC2)CC3CCCCC3,O,0,0,7.7,['7.7'],['hunt_et_al']
COc1ccc(cc1)C[NH2+:24]C(CC2CCCCC2)CC3CCCCC3,O,0,0,7.8,['7.8'],['hunt_et_al']
c1ccc(cc1)CCCC(=O)[OH:12],O,0,0,4.76,['4.76'],['hunt_et_al']
c1ccc(cc1)CC(Cc2ccccc2)[NH2+:23]Cc3ccc(cc3)Cl,O,0,0,6.1,['6.1'],['hunt_et_al']
CCOc1cccc(c1)C[NH2+:25]C(Cc2ccccc2)Cc3ccccc3,O,0,0,6.4,['6.4'],['hunt_et_al']
CC[NH+:12](CC)Cc1ccccc1,O,0,0,9.44,['9.44'],['hunt_et_al']
COc1cccc(c1OC)C[NH3+:10],O,0,0,9.41,['9.41'],['hunt_et_al']
COc1ccc(cc1OC)C[NH3+:10],O,0,0,9.39,['9.39'],['hunt_et_al']
c1ccc(cc1)/C=C/C(=O)[OH:11],O,0,0,4.45,['4.45'],['hunt_et_al']
c1ccc(cc1)C[NH2+:22]CC(c2ccccc2)c3ccccc3,O,0,0,7.6,['7.6'],['hunt_et_al']