Solute SMILES,Solvent SMILES,Solute CAS,Solute IUPAC,pKa (avg),pKa (all),Source (all)
C(=O)(C(F)(F)F)[OH:4],O,0,0,0.3,['0.3'],['hunt_et_al']
CC(C)(C)[SH:5],O,0,0,11.22,['11.22'],['hunt_et_al']
c1ccc(cc1)[SH:7],O,0,0,6.62,['6.62'],['hunt_et_al']
CCCC(CCC)C(=O)[OH:10],O,0,0,4.6,['4.6'],['hunt_et_al']