,Solute SMILES,Solvent SMILES,Solute CAS,Solute IUPAC,pKa (avg),pKa (all),Source
1329,CCCCOc1c([N-]S(=O)(=O)c2ccc(N)cc2)ncnc1OC,O,0,0,6.26,['6.26'],['pKa_prospector']
1330,CCCCOc1cc(C)c(N(CCC[NH+](C)C)C(=O)C=Cc2ccccc2)c(C)c1,O,0,0,8.51,['8.51'],['pKa_prospector']
1331,CCCCOc1cc(C(=O)NCC[NH+](CC)CC)c2ccccc2n1,O,0,0,8.67,['8.67'],['pKa_prospector']
1332,CCCCOc1cc(N)ccc1C(=O)[O-],O,0,0,5.25,['5.25'],['pKa_prospector']
1333,CCCCOc1cc(C(=O)OCC[NH+](CC)CC)ccc1N,O,0,0,8.94,['8.94'],['pKa_prospector']
1334,CCCCOc1ccc(C(=O)[O-])cc1,O,0,0,4.53,['4.53'],['pKa_prospector']
1335,CCCCOc1ccc(C(=O)OCC[NH+](CC)CC)cc1,O,0,0,8.88,['8.88'],['pKa_prospector']
1336,CCCCOc1ccc(C(=O)OCC[NH+]2CCCCC2)cc1,O,0,0,8.3,['8.30'],['pKa_prospector']
1337,CCCCOc1ccc(C[NH2+]C(Cc2ccccc2)Cc2ccccc2)cc1,O,0,0,6.65,['6.65'],['pKa_prospector']
1338,CCCCOc1ccc(NC(=O)C[NH+](CC)CC)cc1,O,0,0,7.98,['7.98'],['pKa_prospector']
1339,CCCCOc1ccc(OCCC[NH+]2CCOCC2)cc1,O,0,0,6.24,['6.24'],['pKa_prospector']
1340,CCCCOc1cccc(C(=O)[O-])c1,O,0,0,4.25,['4.25'],['pKa_prospector']
1341,CCCCOc1cccc(C(=O)OCC[NH+](CC)CC)c1,O,0,0,8.72,['8.72'],['pKa_prospector']
1342,CCCCOc1cccc(NC(=O)C[NH+](CC)CC)c1,O,0,0,7.87,['7.87'],['pKa_prospector']
1343,CCCCOc1ccccc1C(=O)OCC[NH+](CC)CC,O,0,0,8.89,['8.89'],['pKa_prospector']
1344,CCCCOc1cnc([N-]S(=O)(=O)c2ccccc2)nc1,O,0,0,5.8,['5.80'],['pKa_prospector']
1345,CCCCS(=O)(=O)C(C)(C)C(=NO)SC(C)C,O,0,0,9.43,['9.43'],['pKa_prospector']
1346,CCCCSC(C)=NO,O,0,0,11.68,['11.68'],['pKa_prospector']
1347,CCCCSCC(=O)[O-],O,0,0,3.81,['3.81'],['pKa_prospector']
1348,CCCC[n+]1ccn(COC(CC)C(C)(C)[N+](=O)[O-])c1C=NO,O,0,0,7.88,['7.88'],['pKa_prospector']
1349,CCCCc1c(C)nc(N(C)C)nc1O,O,0,0,4.8,['4.80'],['pKa_prospector']
1350,CCCCc1c(C)nc(NCC)nc1O,O,0,0,5.3,['5.30'],['pKa_prospector']
1351,CCCCc1cc2ccccc2c(OCC[NH+](C)C)n1,O,0,0,6.3,['6.30'],['pKa_prospector']
1352,CCCCc1ccc(C(=O)OCC[NH+](CC)CC)cc1,O,0,0,8.9,['8.90'],['pKa_prospector']
1353,CCCCc1ccc(S(N)(=O)=O)cc1,O,0,0,10.4,['10.40'],['pKa_prospector']
1354,CCCCc1ccc(C(=O)[O-])nc1,O,0,0,5.9,['5.90'],['pKa_prospector']
1355,CCCCc1ccc2[nH]c(C(F)(F)F)nc2c1,O,0,0,9.9,['9.90'],['pKa_prospector']
1356,CCCCc1cccc(C(=O)OCC[NH+](CC)CC)c1,O,0,0,8.41,['8.41'],['pKa_prospector']
1357,CCCCc1ccccc1C(=O)OCC[NH+](CC)CC,O,0,0,8.63,['8.63'],['pKa_prospector']
1358,CCCCc1ccccc1N,O,0,0,4.26,['4.26'],['pKa_prospector']
1359,CCCCc1cccnn1,O,0,0,3.49,['3.49'],['pKa_prospector']
1360,CCCCc1ccncc1,O,0,0,6.31,['6.31'],['pKa_prospector']
1361,CCCCc1nc(C)c(C)c([N-]S(=O)(=O)c2ccc(N)cc2)n1,O,0,0,8.55,['8.55'],['pKa_prospector']
1362,CCCCc1nc(N)c2ncsc2n1,O,0,0,3.46,['3.46'],['pKa_prospector']
1363,CCCCn1cccnc1=N,O,0,0,10.91,['10.91'],['pKa_prospector']
1364,CCCCn1cnc2ccccc21,O,0,0,5.29,['5.29'],['pKa_prospector']
1365,CCC[NH+](C)C1CCc2ccccc2C1,O,0,0,9.83,['9.83'],['pKa_prospector']
1366,CCCN(C)c1ccccc1,O,0,0,5.67,['5.67'],['pKa_prospector']
1367,CCC[NH+](CC(C)O)CC(C)O,O,0,0,8.9,['8.90'],['pKa_prospector']
1368,CCC[NH+](CC)C(C)C(=O)Nc1c(C)cccc1C,O,0,0,7.88,['7.88'],['pKa_prospector']
1369,CCC[NH+](CC)C(CC)C(=O)Nc1c(C)cccc1C,O,0,0,7.98,['7.98'],['pKa_prospector']
1370,CCCN(CC)S(=O)(=O)c1ccc(C(=O)[O-])cc1,O,0,0,3.3,['3.30'],['pKa_prospector']
1371,CCCN(CC)c1ccccc1,O,0,0,6.39,['6.39'],['pKa_prospector']
1372,CCC[NH+](CCC)CCC,O,0,0,10.26,['10.26'],['pKa_prospector']
1373,CCC[NH+](CCC)CCC(C(N)=O)(c1ccccc1)c1ccccn1,O,0,0,9.5,['9.50'],['pKa_prospector']
1374,CCC[NH+](CCC)CCOC(=O)c1ccc(N)cc1,O,0,0,9.14,['9.14'],['pKa_prospector']
1375,CCC[NH+](CCC)CCc1c[nH]c2ccccc12,O,0,0,8.6,['8.60'],['pKa_prospector']
1376,CCCN(CCC)S(=O)(=O)c1ccc(C(=O)[O-])cc1,O,0,0,3.4,['3.40'],['pKa_prospector']
1377,CCCN(CCC)S(=O)(=O)c1ccc(-c2ccccc2C(=O)[O-])cc1,O,0,0,4.26,['4.26'],['pKa_prospector']
1378,CCCN(CCC)c1ccc(N=O)cc1,O,0,0,4.17,['4.17'],['pKa_prospector']
1379,CCCN(CCC)c1ccccc1,O,0,0,5.68,['5.68'],['pKa_prospector']
1380,CCC[NH+](CCCl)CCCl,O,0,0,6.68,['6.68'],['pKa_prospector']
1381,CCCN(C1=[NH+]CCN1)c1c(Br)cccc1Br,O,0,0,11,['11.00'],['pKa_prospector']
1382,CCC[NH+]1CC(C)CC(O)C1C(C)c1ccc2c(c1C)CC1C2CC=C2CC(O)CCC21C,O,0,0,7.2,['7.20'],['pKa_prospector']
1383,CCC[NH+]1CCCC1CNC(=O)c1cc(S(N)(=O)=O)ccc1OC,O,0,0,8.99,['8.99'],['pKa_prospector']
1384,CCCN1CC[NH+](CCC)C(NC(=O)c2ccccc2C)C1,O,0,0,7.06,['7.06'],['pKa_prospector']
1385,CCCN1CC[NH+](C)CC1=[NH+]O,O,0,0,13.97,['13.97'],['pKa_prospector']
1386,CCCN1CC[NH2+]CC1=[NH+]O,O,0,0,14.22,['14.22'],['pKa_prospector']
1387,CCC[NH+]1CCc2cccc(Cl)c2CC1,O,0,0,7.95,['7.95'],['pKa_prospector']
1388,CCCNC(=[NH2+])NC(=[NH2+])Nc1ccc(Cl)cc1,O,0,0,11.02,['11.02'],['pKa_prospector']
1389,CCCNC(=O)[N-]S(=O)(=O)c1ccc(Cl)cc1,O,0,0,4.83,['4.83'],['pKa_prospector']
1390,CCCNC(=O)[N-]S(=O)(=O)c1ccc([N+](=O)[O-])cc1,O,0,0,4.01,['4.01'],['pKa_prospector']
1391,CCCNC(=O)[N-]S(=O)(=O)c1ccccc1,O,0,0,5.08,['5.08'],['pKa_prospector']
1392,CCCNC(=O)c1ccc(S(N)(=O)=O)cc1,O,0,0,10.1,['10.10'],['pKa_prospector']
1393,CCC[NH2+]C(C)C(=O)Nc1c(C)csc1C(=O)OC,O,0,0,7.91,['7.91'],['pKa_prospector']
1394,CCC[NH2+]C(C)C(=O)Nc1ccccc1C,O,0,0,7.61,['7.61'],['pKa_prospector']
1395,CCC[NH2+]C(C)Cc1ccccc1,O,0,0,9.98,['9.98'],['pKa_prospector']
1396,CCC[NH2+]C(O)c1ccc(O)c(O)c1,O,0,0,8.57,['8.57'],['pKa_prospector']
1397,CCC[NH2+]CC(O)COc1ccccc1C(=O)CCc1ccccc1,O,0,0,9.62,['9.62'],['pKa_prospector']
1398,CCC[NH2+]Cc1ccccc1,O,0,0,9.58,['9.58'],['pKa_prospector']
1399,CCCNc1ncnc2[nH]ncc12,O,0,0,4.54,['4.54'],['pKa_prospector']
1400,CCCNc1ncnc2c1cnn2C,O,0,0,4.21,['4.21'],['pKa_prospector']
1401,CCCNc1ccccc1,O,0,0,4.9,['4.90'],['pKa_prospector']
1402,CCCNc1ccn(C2CC(O)C(CO)O2)c(=O)n1,O,0,0,2.19,['2.19'],['pKa_prospector']
1403,CCCNc1ncccn1,O,0,0,4.09,['4.09'],['pKa_prospector']
1404,CCCOC(=O)c1ccc(N)cc1,O,0,0,2.49,['2.49'],['pKa_prospector']
1405,CCCOC(=O)c1ccc(O)cc1,O,0,0,8.14,['8.14'],['pKa_prospector']
1406,CCCOC(=O)c1ccc(S(N)(=O)=O)cc1,O,0,0,9.8,['9.80'],['pKa_prospector']
1407,CCCOC(C(=O)C[NH+](C)C)(c1ccccc1)c1ccccc1,O,0,0,7.22,['7.22'],['pKa_prospector']
1408,CCCOC1(c2ccccc2)C[NH+](C)CC(C)O1,O,0,0,7.73,['7.73'],['pKa_prospector']
1409,CCCOC1(c2ccc(Br)cc2)C[NH+](C)CCO1,O,0,0,6.95,['6.95'],['pKa_prospector']
1410,CCCOC1(c2ccccc2)C[NH+](C)CCO1,O,0,0,7.12,['7.12'],['pKa_prospector']
1411,CCCON=Cc1ccccn1,O,0,0,3.56,['3.56'],['pKa_prospector']
1412,CCCON=Cc1cccnc1,O,0,0,4.1,['4.10'],['pKa_prospector']
1413,CCCON=Cc1ccncc1,O,0,0,4.79,['4.79'],['pKa_prospector']
1414,CCCOc1ncnc([N-]S(=O)(=O)c2ccc(N)cc2)c1OC,O,0,0,6,['6.00'],['pKa_prospector']
1415,CCCOc1cc(C(=O)NCC[NH+](CC)CC)c2ccccc2n1,O,0,0,8.83,['8.83'],['pKa_prospector']
1416,CCCOc1cc(N)ccc1C(=O)[O-],O,0,0,4.96,['4.96'],['pKa_prospector']
1417,CCCOc1cc(N)ccc1C(=O)OCC[NH+](CC)CC,O,0,0,8.6,['8.60'],['pKa_prospector']
1418,CCCOc1ccc(C(=O)[O-])cc1,O,0,0,4.62,['4.62'],['pKa_prospector']
1419,CCCOc1ccc(C(=O)OCC[NH+](CC)CC)cc1,O,0,0,8.95,['8.95'],['pKa_prospector']
1420,CCCOc1ccc(NC(=O)C[NH+](CC)CC)cc1,O,0,0,7.69,['7.69'],['pKa_prospector']
1421,CCCOc1cccc(NC(=O)C[NH+](CC)CC)c1,O,0,0,7.63,['7.63'],['pKa_prospector']
1422,CCCOc1ccccc1C(=O)[O-],O,0,0,4.24,['4.24'],['pKa_prospector']
1423,CCCOc1cnc([N-]S(=O)(=O)c2ccccc2)nc1,O,0,0,5.83,['5.83'],['pKa_prospector']
1424,CCCS(=O)(=O)C(C)C(=O)[O-],O,0,0,2.51,['2.51'],['pKa_prospector']
1425,CCCSC(C)=NO,O,0,0,11.66,['11.66'],['pKa_prospector']
1426,CCCSC(=NO)C(=O)c1ccc(Br)cc1,O,0,0,8.45,['8.45'],['pKa_prospector']
1427,CCCSC(C)C(=O)[O-],O,0,0,3.82,['3.82'],['pKa_prospector']
1428,CCCSCC(=O)[O-],O,0,0,3.77,['3.77'],['pKa_prospector']
1429,CCC[n+]1ccn(CC(C)=O)c1C=NO,O,0,0,7.92,['7.92'],['pKa_prospector']
1430,CCC[n+]1ccn(COC)c1C=NO,O,0,0,8.04,['8.04'],['pKa_prospector']
1431,CCC[n+]1ccn(COC(C)C(C)(C)C)c1C=NO,O,0,0,8,['8.00'],['pKa_prospector']
1432,CCC[n+]1ccn(COC(CC)C(C)(C)[N+](=O)[O-])c1C=NO,O,0,0,7.9,['7.90'],['pKa_prospector']
1433,CCC[n+]1ccn(COCC(C)(C)C)c1C=NO,O,0,0,8.06,['8.06'],['pKa_prospector']
1434,CCC[n+]1ccn(COCCS(C)(=O)=O)c1C=NO,O,0,0,7.93,['7.93'],['pKa_prospector']
1435,CCC[n+]1ccn(COCc2ccccc2)c1C=NO,O,0,0,8.01,['8.01'],['pKa_prospector']
1436,CCCc1cc(=O)[nH]c(=S)[nH]1,O,0,0,7.8,['7.80'],['pKa_prospector']
1437,CCCc1ccc(C(=O)OCC[NH+](CC)CC)cc1,O,0,0,8.94,['8.94'],['pKa_prospector']
1438,CCCc1ccc(N(C)C)cc1,O,0,0,4.43,['4.43'],['pKa_prospector']
1439,CCCc1ccc(S(N)(=O)=O)cc1,O,0,0,10.3,['10.30'],['pKa_prospector']
1440,CCCc1ccc(C)nn1,O,0,0,4.25,['4.25'],['pKa_prospector']
1441,CCCc1ccccc1N,O,0,0,4.36,['4.36'],['pKa_prospector']
1442,CCCc1ccnc2c1ccc1cccnc12,O,0,0,5.43,['5.43'],['pKa_prospector']
1443,CCCc1cnc([N-]S(=O)(=O)c2ccccc2)nc1,O,0,0,6.18,['6.18'],['pKa_prospector']
1444,CCCn1c(=O)n(C)c(=O)c2c1nc(CCCN1CC[NH+](C(c3ccccc3)c3ccccc3)CC1)n2C,O,0,0,6.4,['6.40'],['pKa_prospector']
1445,CCCn1cnc2ccccc21,O,0,0,5.44,['5.44'],['pKa_prospector']
1446,CC[NH+](C)C(C)Cc1ccccc1,O,0,0,9.8,['9.80'],['pKa_prospector']
1447,CC[NH+](C)CC(=O)Nc1c(C)cccc1C,O,0,0,7.53,['7.53'],['pKa_prospector']
1448,CCN(C)S(=O)(=O)c1ccc(C(=O)[O-])cc1,O,0,0,3.3,['3.30'],['pKa_prospector']
1449,CCN(C)c1ccccc1,O,0,0,6.02,['6.02'],['pKa_prospector']
1450,CCN(CC)C(=O)C1CCC[NH+](Cc2ccc(C)cc2)C1,O,0,0,7.91,['7.91'],['pKa_prospector']
1451,CCN(CC)C(=O)C1CCC[NH+](Cc2ccc(Cl)cc2)C1,O,0,0,7.55,['7.55'],['pKa_prospector']
1452,CCN(CC)C(=O)C1CCC[NH+](Cc2ccc([N+](=O)[O-])cc2)C1,O,0,0,6.9,['6.90'],['pKa_prospector']
1453,CCN(CC)C(=O)C1CCC[NH+](Cc2ccc(OC)cc2)C1,O,0,0,7.89,['7.89'],['pKa_prospector']
1454,CCN(CC)C(=O)C1CCC[NH+](Cc2cccc(C)c2)C1,O,0,0,7.86,['7.86'],['pKa_prospector']
1455,CCN(CC)C(=O)C1CCC[NH+](Cc2cccc(Cl)c2)C1,O,0,0,7.38,['7.38'],['pKa_prospector']
1456,CCN(CC)C(=O)C1CCC[NH+](Cc2cccc([N+](=O)[O-])c2)C1,O,0,0,6.9,['6.90'],['pKa_prospector']
1457,CCN(CC)C(=O)C1CCC[NH+](Cc2cccc(OC)c2)C1,O,0,0,7.71,['7.71'],['pKa_prospector']
1458,CCN(CC)C(=O)C1CCC[NH+](Cc2ccccc2)C1,O,0,0,7.81,['7.81'],['pKa_prospector']
1459,CCN(CC)C(=O)C1C=C2c3cccc4[nH]cc(c34)CC2[NH+](C)C1,O,0,0,7.8,['7.80'],['pKa_prospector']
1460,CCN(CC)C(=O)C1C[NH+]2CCc3cc(OC)c(OC)cc3C2CC1OC(C)=O,O,0,0,5.9,['5.90'],['pKa_prospector']
1461,CCN(CC)C(=O)CCC(=O)[O-],O,0,0,5.58,['5.58'],['pKa_prospector']
1462,CCN(CC)C(=O)[N-]S(=O)(=O)c1ccccc1,O,0,0,4.74,['4.74'],['pKa_prospector']
1463,CCN(CC)C(=O)Nc1ccc(OCC(O)C[NH2+]C(C)(C)C)c(C(C)=O)c1,O,0,0,9.66,['9.66'],['pKa_prospector']
1464,CC[NH+](CC)C(C)C(=O)Nc1c(C)cccc1C,O,0,0,7.96,['7.96'],['pKa_prospector']
1465,CC[NH+](CC)C(C)C=C(c1cccs1)c1cccs1,O,0,0,8.85,['8.85'],['pKa_prospector']
1466,CC[NH+](CC)C(C)CC(=O)Nc1c(C)cccc1C,O,0,0,9.03,['9.03'],['pKa_prospector']
1467,CC[NH+](CC)C(C)CCC(=O)Nc1c(C)cccc1C,O,0,0,9.87,['9.87'],['pKa_prospector']
1468,CC[NH+](CC)C(C)CCCC(=O)Nc1c(C)cccc1C,O,0,0,10.1,['10.10'],['pKa_prospector']
1469,CC[NH+](CC)C(C)CN1c2ccccc2Sc2ccccc21,O,0,0,9.6,['9.60'],['pKa_prospector']
1470,CC[NH+](CC)C(COC(=O)c1ccc(N)cc1)CC(C)C,O,0,0,9.4,['9.40'],['pKa_prospector']
1471,CC[NH+](CC)CC(=O)N(C)S(=O)(=O)c1ccc(C)cc1,O,0,0,8,['8.00'],['pKa_prospector']
1472,CC[NH+](CC)CC(=O)NC1CCc2ccccc21,O,0,0,8.19,['8.19'],['pKa_prospector']
1473,CC[NH+](CC)CC(=O)NC1COc2ccc(C)cc21,O,0,0,8,['8.00'],['pKa_prospector']
1474,CC[NH+](CC)CC(=O)NC1COc2ccc(Cl)cc21,O,0,0,7.9,['7.90'],['pKa_prospector']
1475,CC[NH+](CC)CC(=O)NC1COc2ccccc21,O,0,0,8,['8.00'],['pKa_prospector']
1476,CC[NH+](CC)CC(=O)NC1c2ccccc2-c2ccccc21,O,0,0,7.98,['7.98'],['pKa_prospector']
1477,CC[NH+](CC)CC(=O)NCC(=O)Nc1c(C)cccc1C,O,0,0,7.7,['7.70'],['pKa_prospector']
1478,CC[NH+](CC)CC(=O)NCc1ccccc1,O,0,0,8.07,['8.07'],['pKa_prospector']
1479,CC[NH+](CC)CC(=O)Nc1c(C)cc(C)cc1C,O,0,0,7.99,['7.99'],['pKa_prospector']
1480,CC[NH+](CC)CC(=O)Nc1c(C)cccc1C,O,0,0,7.79,['7.79'],['pKa_prospector']
1481,CC[NH+](CC)CC(C)(C)COC(=O)c1ccccc1,O,0,0,9.58,['9.58'],['pKa_prospector']
1482,CC[NH+](CC)CC1CCc2cc(C)c([N+](=O)[O-])cc2N1,O,0,0,9.6,['9.60'],['pKa_prospector']
1483,CC[NH+](CC)CCC(C)=O,O,0,0,9.04,['9.04'],['pKa_prospector']
1484,CC[NH+](CC)CCC(=O)C(c1ccccc1)c1ccccc1,O,0,0,9.55,['9.55'],['pKa_prospector']
1485,CC[NH+](CC)CCC(=O)Nc1c(C)cccc1C,O,0,0,8.83,['8.83'],['pKa_prospector']
1486,CC[NH+](CC)CCC(C)Nc1c2ccc(Cl)cc2[nH+]c2ccc(OC)cc12,O,0,0,7.44,['7.44'],['pKa_prospector']
1487,CC[NH+](CC)CCC(C(=O)[O-])(c1ccccc1)c1ccccc1,O,0,0,10.59,['10.59'],['pKa_prospector']
1488,CC[NH+](CC)CCC(C(=O)Cc1ccccc1)c1ccccc1,O,0,0,9.46,['9.46'],['pKa_prospector']
1489,CC[NH+](CC)CCC(OC(=O)c1ccccc1)c1ccccc1,O,0,0,7.53,['7.53'],['pKa_prospector']
1490,CC[NH+](CC)CCCC(=O)Nc1c(C)cccc1C,O,0,0,9.52,['9.52'],['pKa_prospector']
1491,CC[NH+](CC)CCCC(=O)c1ccccc1,O,0,0,9.94,['9.94'],['pKa_prospector']
1492,CC[NH+](CC)CCCC(C)n1c2nc(=O)[nH]c(=O)c-2nc2cc(Cl)c(Cl)cc21,O,0,0,9.6,['9.60'],['pKa_prospector']
1493,CC[NH+](CC)CCCCC#N,O,0,0,10.08,['10.08'],['pKa_prospector']
1494,CC[NH+](CC)CCCCC(=O)Nc1c(C)cccc1C,O,0,0,9.66,['9.66'],['pKa_prospector']
1495,CC[NH+](CC)CCCCC(C)Nc1c2ccc(Cl)cc2[nH+]c2ccc(OC)cc12,O,0,0,7.98,['7.98'],['pKa_prospector']
1496,CC[NH+](CC)CCCCCC#N,O,0,0,10.46,['10.46'],['pKa_prospector']
1497,CC[NH+](CC)CCCCCC(=O)Nc1c(C)cccc1C,O,0,0,10.24,['10.24'],['pKa_prospector']
1498,CC[NH+](CC)CCCCCCC(=O)Nc1c(C)cccc1C,O,0,0,10.24,['10.24'],['pKa_prospector']
1499,CC[NH+](CC)CCCCCNc1ccc(C)c2sc3ccccc3c(=O)c12,O,0,0,9.41,['9.41'],['pKa_prospector']
1500,CC[NH+](CC)CCCCCn1c2nc(=O)[nH]c(=O)c-2nc2cc(Cl)c(Cl)cc21,O,0,0,9.6,['9.60'],['pKa_prospector']
1501,CC[NH+](CC)CCCCNc1ccc(C)c2sc3ccccc3c(=O)c12,O,0,0,9.22,['9.22'],['pKa_prospector']
1502,CC[NH+](CC)CCCCOC(=O)c1ccc(N)cc1,O,0,0,10.38,['10.38'],['pKa_prospector']
1503,CC[NH+](CC)CCCCn1c2nc(=O)[nH]c(=O)c-2nc2cc(Cl)c(Cl)cc21,O,0,0,9.7,['9.70'],['pKa_prospector']
1504,CC[NH+](CC)CCCN(C(=O)C=Cc1ccccc1)c1c(C)cccc1C,O,0,0,8.69,['8.69'],['pKa_prospector']
1505,CC[NH+](CC)CCCN(C(=O)CC1CCCCC1)c1c(C)cccc1C,O,0,0,8.7,['8.70'],['pKa_prospector']
1506,CC[NH+](CC)CCCN(C(=O)Cc1ccccc1)c1c(C)cccc1C,O,0,0,8.72,['8.72'],['pKa_prospector']
1507,CC[NH+](CC)CCCN(c1ccccc1)C1Cc2ccccc2C1,O,0,0,9.95,['9.95'],['pKa_prospector']
1508,CC[NH+](CC)CCCN1C(=O)CC2(CCCc3ccccc32)C1=O,O,0,0,9.4,['9.40'],['pKa_prospector']
1509,CC[NH+](CC)CCCNC(=O)c1ccccc1,O,0,0,9.71,['9.71'],['pKa_prospector']
1510,CC[NH+](CC)CCCNC(=O)c1ccccc1OC,O,0,0,9.86,['9.86'],['pKa_prospector']
1511,CC[NH+](CC)CCCNc1c2ccccc2[nH+]c2ccccc12,O,0,0,8.78,['8.78'],['pKa_prospector']
1512,CC[NH+](CC)CCCNc1ccc(C)c2sc3ccccc3c(=O)c12,O,0,0,8.87,['8.87'],['pKa_prospector']
1513,CC[NH+](CC)CCCOC(=O)C=Cc1ccccc1,O,0,0,9.71,['9.71'],['pKa_prospector']
1514,CC[NH+](CC)CCCOC(=O)c1ccc(N)cc1,O,0,0,9.99,['9.99'],['pKa_prospector']
1515,CC[NH+](CC)CCCc1ccccc1,O,0,0,10.34,['10.34'],['pKa_prospector']
1516,CC[NH+](CC)CCCl,O,0,0,8.8,['8.80'],['pKa_prospector']
1517,CC[NH+](CC)CCCn1c2nc(=O)[nH]c(=O)c-2nc2cc(Cl)c(Cl)cc21,O,0,0,9.1,['9.10'],['pKa_prospector']
1518,CC[NH+](CC)CCCn1c2nc(=O)n(C)c(=O)c-2nc2cc(Cl)c(Cl)cc21,O,0,0,9.7,['9.70'],['pKa_prospector']
1519,CC[NH+](CC)CCCn1c2nc(=O)[nH]c(=O)c-2nc2cc(Cl)ccc21,O,0,0,9.8,['9.80'],['pKa_prospector']
1520,CC[NH+](CC)CCCn1cc[n+](C)c1C=NO,O,0,0,7.82,['7.82'],['pKa_prospector']
1521,CC[NH+](CC)CCN(C=O)c1c(C)cccc1C,O,0,0,8.71,['8.71'],['pKa_prospector']
1522,CC[NH+](CC)CCN(Cc1ccc(C(C)(C)C)cc1)c1ccccc1,O,0,0,9.3,['9.30'],['pKa_prospector']
1523,CC[NH+](CC)CCN(C(C)=O)c1c(C)cccc1C,O,0,0,8.71,['8.71'],['pKa_prospector']
1524,CC=CC(=O)N(CC[NH+](CC)CC)c1c(C)cccc1C,O,0,0,8.72,['8.72'],['pKa_prospector']
1525,CC[NH+](CC)CCN1c2ccccc2Sc2ccccc21,O,0,0,9.06,['9.06'],['pKa_prospector']
1526,CC[NH+](CC)CCN=c1cc2n(-c3ccc(Cl)cc3)c3ccccc3nc-2cc1Nc1ccc(Cl)cc1,O,0,0,8.85,['8.85'],['pKa_prospector']
1527,CC[NH+](CC)CCNC(=O)c1cc(Br)c(N)cc1OC,O,0,0,9.48,['9.48'],['pKa_prospector']
1528,CC[NH+](CC)CCNC(=O)c1cc(C#N)c(N)cc1OC,O,0,0,9.32,['9.32'],['pKa_prospector']
1529,CC[NH+](CC)CCNC(=O)c1cc(Cl)c(N)cc1OC,O,0,0,9.38,['9.38'],['pKa_prospector']
1530,CC[NH+](CC)CCNC(=O)c1cc(F)c(N)cc1OC,O,0,0,9.62,['9.62'],['pKa_prospector']
1531,CC[NH+](CC)CCNC(=O)c1cc(I)c(N)cc1OC,O,0,0,9.48,['9.48'],['pKa_prospector']
1532,CC[NH+](CC)CCNC(=O)c1cc([N+](=O)[O-])c(N)cc1OC,O,0,0,9.25,['9.25'],['pKa_prospector']
1533,CC[NH+](CC)CCNC(=O)c1cc(S(=O)(=O)CC)c(N)cc1OC,O,0,0,9.41,['9.41'],['pKa_prospector']
1534,CC[NH+](CC)CCNC(=O)c1cc(Cl)cc(Cl)c1,O,0,0,9.13,['9.13'],['pKa_prospector']
1535,CC[NH+](CC)CCNC(=O)c1cc(F)cc(Cl)c1OC,O,0,0,9.09,['9.09'],['pKa_prospector']
1536,CC[NH+](CC)CCNC(=O)c1cc(Br)ccc1OC,O,0,0,9.19,['9.19'],['pKa_prospector']
1537,CC[NH+](CC)CCNC(=O)c1cc(Cl)ccc1OC,O,0,0,9.19,['9.19'],['pKa_prospector']
1538,CC[NH+](CC)CCNC(=O)c1cc(F)ccc1OC,O,0,0,9.22,['9.22'],['pKa_prospector']
1539,CC[NH+](CC)CCNC(=O)c1cc(S(C)(=O)=O)ccc1OC,O,0,0,9.21,['9.21'],['pKa_prospector']
1540,CC[NH+](CC)CCNC(=O)c1cc(OC)nc2ccccc12,O,0,0,8.82,['8.82'],['pKa_prospector']
1541,CCOc1cc(C(=O)NCC[NH+](CC)CC)c2ccccc2n1,O,0,0,8.89,['8.89'],['pKa_prospector']
1542,CC[NH+](CC)CCNC(=O)c1ccc(N)c(Cl)c1,O,0,0,9.26,['9.26'],['pKa_prospector']
1543,CC[NH+](CC)CCNC(=O)c1ccc(N)cc1,O,0,0,9.31,['9.31'],['pKa_prospector']
1544,CC[NH+](CC)CCNC(=O)c1ccc(N)cc1OC,O,0,0,9.18,['9.18'],['pKa_prospector']
1545,CC[NH+](CC)CCNC(=O)c1ccccc1,O,0,0,9.19,['9.19'],['pKa_prospector']
1546,CC[NH+](CC)CCNC(=O)c1ccccc1OC,O,0,0,9.22,['9.22'],['pKa_prospector']
1547,CC[NH+](CC)CCNc1ncnc2ccccc12,O,0,0,7.6,['7.60'],['pKa_prospector']
1548,CC[NH+](CC)CCNc1ccc(C)c(Cl)c1,O,0,0,9.6,['9.60'],['pKa_prospector']
1549,CC[NH+](CC)CCNc1ccc(C)c2sc3ccccc3c(=O)c12,O,0,0,8.25,['8.25'],['pKa_prospector']
1550,CC[NH+](CC)CCOC(=O)C(C)(c1ccccc1)c1ccccc1,O,0,0,8.6,['8.60'],['pKa_prospector']
1551,CC[NH+](CC)CCOC(=O)C(O)(c1ccccc1)c1ccccc1,O,0,0,8.68,['8.68'],['pKa_prospector']
1552,CC[NH+](CC)CCOC(=O)c1ccc(Br)cc1,O,0,0,8.47,['8.47'],['pKa_prospector']
1553,CC[NH+](CC)CCOC(=O)c1ccc(C)cc1,O,0,0,8.91,['8.91'],['pKa_prospector']
1554,CC[NH+](CC)CCOC(=O)c1ccc(C(C)(C)C)cc1,O,0,0,8.97,['8.97'],['pKa_prospector']
1555,CC[NH+](CC)CCOC(=O)c1ccc(C(C)C)cc1,O,0,0,8.99,['8.99'],['pKa_prospector']
1556,CC[NH+](CC)CCOC(=O)c1ccc(C2CCCC2)cc1,O,0,0,8.97,['8.97'],['pKa_prospector']
1557,CC[NH+](CC)CCOC(=O)c1ccc(Cl)cc1,O,0,0,8.45,['8.45'],['pKa_prospector']
1558,CC[NH+](CC)CCOC(=O)c1ccc(F)cc1,O,0,0,8.82,['8.82'],['pKa_prospector']
1559,CC[NH+](CC)CCOC(=O)c1ccc([N+](=O)[O-])cc1,O,0,0,8.67,['8.67'],['pKa_prospector']
1560,CC[NH+](CC)CCOC(=O)c1ccc(O)cc1,O,0,0,9.09,['9.09'],['pKa_prospector']
1561,CCOc1ccc(C(=O)OCC[NH+](CC)CC)cc1,O,0,0,8.66,['8.66'],['pKa_prospector']
1562,CCSc1ccc(C(=O)OCC[NH+](CC)CC)cc1,O,0,0,8.91,['8.91'],['pKa_prospector']
1563,CC[NH+](CC)CCOC(=O)c1cccc(N)c1,O,0,0,8.85,['8.85'],['pKa_prospector']
1564,CC[NH+](CC)CCOC(=O)c1ccccc1,O,0,0,8.8,['8.80'],['pKa_prospector']
1565,CC[NH+](CC)CCOC(=O)c1ccccc1N,O,0,0,8.96,['8.96'],['pKa_prospector']
1566,CC[NH+](CC)CCOCCn1c([N+](=O)[O-])c[nH+]c1C,O,0,0,5.07,['5.07'],['pKa_prospector']
1567,CC[NH+](CC)CCSC(=NO)C(=O)c1ccc(Br)cc1,O,0,0,7.2,['7.20'],['pKa_prospector']
1568,CC[NH+](CC)CCSC(=NO)C(=O)c1ccc(C#N)cc1,O,0,0,7.02,['7.02'],['pKa_prospector']
1569,CC[NH+](CC)CCSC(=NO)C(=O)c1ccc(Cl)cc1,O,0,0,7.42,['7.42'],['pKa_prospector']
1570,CC[NH+](CC)CCSC(=NO)C(=O)c1ccc(OC)cc1,O,0,0,7.74,['7.74'],['pKa_prospector']
1571,CC[NH+](CC)CCSC(=NO)C(=O)c1ccccc1,O,0,0,7.6,['7.60'],['pKa_prospector']
1572,CC[NH+](CC)CCSC(=NO)c1nonc1C,O,0,0,7.63,['7.63'],['pKa_prospector']
1573,CC[NH+](CC)CCSC(=NO)c1nsnc1C,O,0,0,8.51,['8.51'],['pKa_prospector']
1574,CC[NH+](CC)CCSC(=NO)c1ccc(Br)cc1,O,0,0,9.28,['9.28'],['pKa_prospector']
1575,CC[NH+](CC)CCSC(=NO)c1cnsn1,O,0,0,7.69,['7.69'],['pKa_prospector']
1576,CC[NH+](CC)CCSC(=NO)c1nc(C)no1,O,0,0,6.32,['6.32'],['pKa_prospector']
1577,CC[NH+](CC)CCSC(=NO)c1nc(C(C)(C)C)no1,O,0,0,6.61,['6.61'],['pKa_prospector']
1578,CC[NH+](CC)CCSC(=NO)c1nc(Cc2ccccc2)no1,O,0,0,6.19,['6.19'],['pKa_prospector']
1579,CC[NH+](CC)CCSC(=NO)c1nc(-c2cccc3ccccc23)no1,O,0,0,6.5,['6.50'],['pKa_prospector']
1580,CC[NH+](CC)CCSC(=NO)c1nc(-c2ccccc2)no1,O,0,0,6.32,['6.32'],['pKa_prospector']
1581,CC[NH+](CC)CCSC(=NO)c1noc(-c2ccccc2)n1,O,0,0,7.36,['7.36'],['pKa_prospector']
1582,CC[NH+](CC)CCSC(=NO)c1nnc(-c2ccccc2)o1,O,0,0,6.35,['6.35'],['pKa_prospector']
1583,CC[NH+](CC)CCc1ccccc1,O,0,0,9.79,['9.79'],['pKa_prospector']
1584,CC[NH+](CC)CCn1c2nc(=O)[nH]c(=O)c-2nc2cc(Cl)c(Cl)cc21,O,0,0,7.7,['7.70'],['pKa_prospector']
1585,CC[NH+](CC)CCn1cc[n+](C)c1C=NO,O,0,0,7.86,['7.86'],['pKa_prospector']