,Solute SMILES,Solvent SMILES,Solute CAS,Solute IUPAC,pKa (avg),pKa (all),Source
2649,Cc1[nH]c2ccccc2c1C,O,0,0,-1.1,['-1.10'],['pKa_prospector']
2650,Cc1[nH]c(=O)[nH]c(=O)c1N(CCF)CCCl,O,0,0,9.61,['9.61'],['pKa_prospector']
2651,Cc1c(C)c([N+](=O)[O-])c(C)c(C)c1N,O,0,0,2.36,['2.36'],['pKa_prospector']
2652,CC(=O)Nc1c(C)c(C)c(O)c(C)c1C,O,0,0,10.79,['10.79'],['pKa_prospector']
2653,Cc1c(C)c(O)c(C)c(C)c1O,O,0,0,11.25,['11.25'],['pKa_prospector']
2654,Cc1nc(C)c(C(=O)[O-])c(-c2cccc(Cl)c2Cl)c1C(=O)[O-],O,0,0,1.56,['1.56'],['pKa_prospector']
2655,COC(=O)c1c(C)nc(C)c(C(=O)[O-])c1-c1cccc(Cl)c1Cl,O,0,0,3.65,['3.65'],['pKa_prospector']
2656,COCc1cnc(C)c(O)c1C=O,O,0,0,4.75,['4.75'],['pKa_prospector']
2657,Cc1c(C)c(Cl)c2[nH]c(C(F)(F)F)nc2c1Cl,O,0,0,8.5,['8.50'],['pKa_prospector']
2658,Cc1c(N)ccc([N+](=O)[O-])c1C,O,0,0,1.96,['1.96'],['pKa_prospector']
2659,CC(=O)Nc1ccc(O)c(C)c1C,O,0,0,10.33,['10.33'],['pKa_prospector']
2660,Cc1nc(N)nc(N)c1-c1ccc(Cl)c(Cl)c1,O,0,0,7.15,['7.15'],['pKa_prospector']
2661,Cc1nnc(C)c(C)c1C,O,0,0,5.36,['5.36'],['pKa_prospector']
2662,Cc1onc(-c2c(Cl)cccc2Cl)c1C(=O)NC1C(=O)N2C1SC(C)(C)C2C(=O)[O-],O,0,0,2.76,['2.76'],['pKa_prospector']
2663,Cc1onc(-c2c(F)cccc2Cl)c1C(=O)NC1C(=O)N2C1SC(C)(C)C2C(=O)[O-],O,0,0,2.76,['2.76'],['pKa_prospector']
2664,Cc1onc(-c2ccccc2)c1C(=O)NC1C(=O)N2C1SC(C)(C)C2C(=O)[O-],O,0,0,2.78,['2.78'],['pKa_prospector']
2665,Cc1onc(-c2ccccc2Cl)c1C(=O)NC1C(=O)N2C1SC(C)(C)C2C(=O)[O-],O,0,0,2.74,['2.74'],['pKa_prospector']
2666,Cc1nc2c(c(C)c1C)c(C)c(C)c1c(C)nccc12,O,0,0,7.06,['7.06'],['pKa_prospector']
2667,COc1ccc2c(c1)c(CC(=O)[O-])c(C)n2C(=O)c1ccc(Cl)cc1,O,0,0,4.5,['4.50'],['pKa_prospector']
2668,Cc1c(O)c[n+](N)cc1-c1ccccc1,O,0,0,4.9,['4.90'],['pKa_prospector']
2669,Cc1c(C2(c3cc(C(C)C)c(O)c(Br)c3C)OS(=O)(=O)c3ccccc32)cc(C(C)C)c(O)c1Br,O,0,0,7.34,['7.34'],['pKa_prospector']
2670,Cc1c(Br)cc(N)cc1Br,O,0,0,2.87,['2.87'],['pKa_prospector']
2671,Cc1c([N+](=O)[O-])cc(C(=O)[O-])cc1[N+](=O)[O-],O,0,0,2.97,['2.97'],['pKa_prospector']
2672,Cc1c(N(C)C)cc(Cc2cnc(N)nc2N)cc1N(C)C,O,0,0,7.16,['7.16'],['pKa_prospector']
2673,Cc1c(C(C)C2[NH2+]CC(C)CC2O)ccc2c1CC1C2CC=C2CC(O)CCC21C,O,0,0,7.49,['7.49'],['pKa_prospector']
2674,Cc1c(Br)cccc1[NH+]=C1NCCN1,O,0,0,9.9,['9.90'],['pKa_prospector']
2675,Cc1c(Cl)cccc1[NH+]=C1NCCN1,O,0,0,9.85,['9.85'],['pKa_prospector']
2676,Cc1c(Cl)cccc1N=NC(=S)NNc1cccc(Cl)c1C,O,0,0,5.49,['5.49'],['pKa_prospector']
2677,Cc1c(Cl)cccc1Nc1ccccc1CC(=O)[O-],O,0,0,4.3,['4.30'],['pKa_prospector']
2678,Cc1ncc([N-]S(=O)(=O)c2ccc(N)cc2)c(C)n1,O,0,0,7.2,['7.20'],['pKa_prospector']
2679,COc1cncc(-c2ccccc2)c1C,O,0,0,5,['5.00'],['pKa_prospector']
2680,Cc1nc2cnc(=N)nc-2n(C)c1C,O,0,0,5.59,['5.59'],['pKa_prospector']
2681,CN=c1ncc2nc(C)c(C)n(C)c-2n1,O,0,0,6.1,['6.10'],['pKa_prospector']
2682,Cc1nc2cnc(=O)nc-2n(C)c1C,O,0,0,10.28,['10.28'],['pKa_prospector']
2683,CN=c1ncnc2n(C)c(C)c(C)nc1-2,O,0,0,6.62,['6.62'],['pKa_prospector']
2684,CNc1c(C)c(C)[nH+]c(C)c1C,O,0,0,10.07,['10.07'],['pKa_prospector']
2685,CNc1nc(C)c(C)nc1C(N)=[NH2+],O,0,0,9.43,['9.43'],['pKa_prospector']
2686,Cc1nc2c(=N)ncn(C)c2nc1C,O,0,0,10.44,['10.44'],['pKa_prospector']
2687,CN=c1ncn(C)c2nc(C)c(C)nc12,O,0,0,11.39,['11.39'],['pKa_prospector']
2688,Cc1nc2nc(N)n(C)c(=O)c2nc1C,O,0,0,2.6,['2.60'],['pKa_prospector']
2689,Cc1nc2ncn(C)c(=O)c2nc1C,O,0,0,-0.05,['-0.05'],['pKa_prospector']
2690,Cc1nc2[nH]c(C[NH3+])nc(=O)c2nc1C,O,0,0,2.4,['2.40'],['pKa_prospector']
2691,Cc1nc2[nH]c(N)nc(=O)c2nc1C,O,0,0,2.6,['2.60'],['pKa_prospector']
2692,Cc1nc2c(=O)nc(N)n(C)c2nc1C,O,0,0,3.2,['3.20'],['pKa_prospector']
2693,Cc1nc2c(=O)ncn(C)c2nc1C,O,0,0,1.73,['1.73'],['pKa_prospector']
2694,Cc1nc2c(N)nc(=N)n(C)c2nc1C,O,0,0,11.86,['11.86'],['pKa_prospector']
2695,Cc1nc2nc(N)nc(C)c2nc1C,O,0,0,2.99,['2.99'],['pKa_prospector']
2696,Cc1nc2nc(N)nc(O)c2nc1C,O,0,0,2.6,['2.60'],['pKa_prospector']
2697,Cc1nc2nc(N)nc(OC(C)C)c2nc1C,O,0,0,4.34,['4.34'],['pKa_prospector']
2698,COc1nc(N)nc2nc(C)c(C)nc12,O,0,0,3.99,['3.99'],['pKa_prospector']
2699,Cc1nc2nc(N)nc(OCc3ccccc3)c2nc1C,O,0,0,3.9,['3.90'],['pKa_prospector']
2700,CNc1nc(O)c2nc(C)c(C)nc2n1,O,0,0,2.4,['2.40'],['pKa_prospector']
2701,Cc1nc2ncnc(N(C)C)c2nc1C,O,0,0,4.82,['4.82'],['pKa_prospector']
2702,Cc1nc2ncnc(N)c2nc1C,O,0,0,3.78,['3.78'],['pKa_prospector']
2703,CNc1ncnc2nc(C)c(C)nc12,O,0,0,4.15,['4.15'],['pKa_prospector']
2704,Cc1nc2cn(C)c(=O)nc2nc1C,O,0,0,11.43,['11.43'],['pKa_prospector']
2705,Cc1ncc2nc(C)c(C)nc2n1,O,0,0,3.69,['3.69'],['pKa_prospector']
2706,Cc1nc2cnc(N)nc2nc1C,O,0,0,3.39,['3.39'],['pKa_prospector']
2707,Cc1nc2cncnc2nc1C,O,0,0,2.86,['2.86'],['pKa_prospector']
2708,Cc1nc2nc(C)c(C)nc2nc1C,O,0,0,-0.02,['-0.02'],['pKa_prospector']
2709,COc1nc2ccccc2nc1C,O,0,0,1.38,['1.38'],['pKa_prospector']
2710,Cc1nc2ccccn2c(=O)c1C,O,0,0,4.42,['4.42'],['pKa_prospector']
2711,Cc1nc2n(c(=O)c1C)CCCC2,O,0,0,4.3,['4.30'],['pKa_prospector']
2712,Cc1[nH]cnc1CSCCNC(=[NH2+])NCCSCc1nc[nH]c1C,O,0,0,6.8,['6.80'],['pKa_prospector']
2713,CNC(=NC#N)NCCSCc1nc[nH]c1C,O,0,0,6.7,['6.70'],['pKa_prospector']
2714,CNC(=S)NCCSCc1nc[nH]c1C,O,0,0,6.8,['6.80'],['pKa_prospector']
2715,CNC(=NC#N)NCCSCc1ncn(COC(=O)C(C)(C)C)c1C,O,0,0,4.7,['4.70'],['pKa_prospector']
2716,Cc1ncnc([N-]S(=O)(=O)c2ccc(N)cc2)c1C,O,0,0,7.36,['7.36'],['pKa_prospector']
2717,Cc1nnc2c(c1C)CCC2,O,0,0,5.36,['5.36'],['pKa_prospector']
2718,Cc1nnc2c(c1C)CCCC2,O,0,0,5.41,['5.41'],['pKa_prospector']
2719,Cc1noc([N-]S(=O)(=O)c2ccc(N)cc2)c1C,O,0,0,4.75,['4.75'],['pKa_prospector']
2720,CC(=O)Nc1ccc(S(=O)(=O)[N-]c2onc(C)c2C)cc1,O,0,0,4.72,['4.72'],['pKa_prospector']
2721,Cc1nsnc1C=NO,O,0,0,9.54,['9.54'],['pKa_prospector']
2722,Cc1ncsc1CCCl,O,0,0,3.2,['3.20'],['pKa_prospector']
2723,Cc1n[nH]c2c(N)ncnc12,O,0,0,4.98,['4.98'],['pKa_prospector']
2724,Cc1n[nH]c2c(NCc3ccccc3)ncnc12,O,0,0,4.91,['4.91'],['pKa_prospector']
2725,Cc1n[nH]c2c(NCc3ccco3)ncnc12,O,0,0,4.8,['4.80'],['pKa_prospector']
2726,Cc1n[nH]c2c(Nc3ccccc3)ncnc12,O,0,0,4.57,['4.57'],['pKa_prospector']
2727,COc1ccc2c(c1)[nH]c1c(C)nccc12,O,0,0,7.61,['7.61'],['pKa_prospector']
2728,Cc1nc(N)nc2nccnc12,O,0,0,2.81,['2.81'],['pKa_prospector']
2729,CC(=O)N1CCN(C(C)=O)c2c(C)ncnc21,O,0,0,2.12,['2.12'],['pKa_prospector']
2730,CC(=O)N1CCN(Cc2ccccc2)c2ncnc(C)c21,O,0,0,5.45,['5.45'],['pKa_prospector']
2731,Cc1ncnc2c1N(C=O)CCN2Cc1ccccc1,O,0,0,5.42,['5.42'],['pKa_prospector']
2732,CC1=Nc2c(C)ncnc2NC1,O,0,0,6,['6.00'],['pKa_prospector']
2733,Cc1ncnc2c1NCCN2,O,0,0,6.71,['6.71'],['pKa_prospector']
2734,CC(=O)N1CCNc2ncnc(C)c21,O,0,0,5.23,['5.23'],['pKa_prospector']
2735,Cc1ncnc2c1N(C=O)CCN2,O,0,0,5.42,['5.42'],['pKa_prospector']
2736,Cc1c(CC(=O)[O-])sc2ccc(Cl)cc12,O,0,0,3.89,['3.89'],['pKa_prospector']
2737,Cc1nncc2ccccc12,O,0,0,4.37,['4.37'],['pKa_prospector']
2738,Cc1c2ccncc2c(C)c2c1[nH]c1ccccc12,O,0,0,7.57,['7.57'],['pKa_prospector']
2739,Cc1c2ccncc2cc2c1[nH]c1ccccc12,O,0,0,7.02,['7.02'],['pKa_prospector']
2740,Cc1c[nH]c2ccccc12,O,0,0,-3.35,['-3.35'],['pKa_prospector']
2741,Cc1cc(=O)n(-c2ccccc2)[nH]1,O,0,0,1.05,['1.05'],['pKa_prospector']
2742,Cc1cc(=O)n(C)c(NN)n1,O,0,0,5.5,['5.50'],['pKa_prospector']
2743,CSc1nc(C)cc(=O)n1C,O,0,0,0.9,['0.90'],['pKa_prospector']
2744,Cc1cc(=O)n(-c2ccccc2)n1C,O,0,0,1.41,['1.41'],['pKa_prospector']
2745,Cc1cc(=O)n2c(n1)C(C)CCC2,O,0,0,3.55,['3.55'],['pKa_prospector']
2746,Cc1cc(=O)n2c(n1)CCCC2,O,0,0,3.61,['3.61'],['pKa_prospector']
2747,Cc1cc(=O)n2c(n1)CCCC2C,O,0,0,3.85,['3.85'],['pKa_prospector']
2748,Cc1cc(=O)n2ccccc2n1,O,0,0,3.6,['3.60'],['pKa_prospector']
2749,Cc1cc(=O)nc(NN)[nH]1,O,0,0,3.8,['3.80'],['pKa_prospector']
2750,Cc1cc(Br)c(N)c(Br)c1,O,0,0,0.69,['0.69'],['pKa_prospector']
2751,Cc1cc(C)c(C(=O)[O-])c(C)c1,O,0,0,4.4,['4.40'],['pKa_prospector']
2752,Cc1cc(C)c(C23CCC[NH+]2CCO3)c(C)c1,O,0,0,9.12,['9.12'],['pKa_prospector']
2753,Cc1cc(C)c(CC2=[NH+]CCN2)c(C)c1,O,0,0,10.7,['10.70'],['pKa_prospector']
2754,Cc1cc(C)c(N)c(C)c1,O,0,0,4.37,['4.37'],['pKa_prospector']
2755,Cc1cc(C)c([NH+]=C2NCCN2)c(C)c1,O,0,0,10.78,['10.78'],['pKa_prospector']
2756,Cc1cc(C)c(NC(=O)C2CNCC[NH2+]2)c(C)c1,O,0,0,7.95,['7.95'],['pKa_prospector']
2757,Cc1cc(C)c(O)c(C)c1,O,0,0,10.88,['10.88'],['pKa_prospector']
2758,Cc1cc(CO)c(O)c(CO)c1,O,0,0,9.92,['9.92'],['pKa_prospector']
2759,Cc1cc(C)c([NH+]=C2NCCN2)c(Cl)c1,O,0,0,9.59,['9.59'],['pKa_prospector']
2760,Cc1cc(Cl)c([NH+]=C2NCCN2)c(Cl)c1,O,0,0,8.29,['8.29'],['pKa_prospector']
2761,Cc1cc([N+](=O)[O-])c(N)c([N+](=O)[O-])c1,O,0,0,-3.96,['-3.96'],['pKa_prospector']
2762,Cc1cc(C)c(C)c(C(=O)[O-])c1C,O,0,0,3.52,['3.52'],['pKa_prospector']
2763,Cc1cc(C)c(C(=O)[O-])c(C)c1C,O,0,0,4,['4.00'],['pKa_prospector']
2764,Cc1cc(C(=O)[O-])c(C)c(C)c1C,O,0,0,4.22,['4.22'],['pKa_prospector']
2765,Cc1cc(C)c(C)c(N)c1C,O,0,0,4.3,['4.30'],['pKa_prospector']
2766,Cc1cc(C)c(C)c(Nc2ccccc2CC(=O)[O-])c1C,O,0,0,4.2,['4.20'],['pKa_prospector']
2767,Cc1cc(C)c([N+](=O)[O-])c(C)c1O,O,0,0,8.98,['8.98'],['pKa_prospector']
2768,CC(=O)Nc1c(C)cc(O)c(C)c1C,O,0,0,10.44,['10.44'],['pKa_prospector']
2769,CC(=O)Nc1cc(C)c(O)c(C)c1C,O,0,0,10.54,['10.54'],['pKa_prospector']
2770,CC(=O)Oc1c(C)cc(OCC(O)C[NH2+]C(C)C)c(C)c1C,O,0,0,9.7,['9.70'],['pKa_prospector']
2771,Cc1cc([O-])c([N+](=O)[O-])cc1Cl,O,0,0,6.84,['6.84'],['pKa_prospector']
2772,Cc1cc(N=Nc2ccc3c(c2)Cc2ccccc2-3)c(N)cc1N,O,0,0,5.5,['5.50'],['pKa_prospector']
2773,Cc1cc(N)c(SS(=O)(=O)[O-])cc1N,O,0,0,5.64,['5.64'],['pKa_prospector']
2774,Cc1cc(OCC[NH+](C)C)c(C(C)C)cc1O,O,0,0,8.72,['8.72'],['pKa_prospector']
2775,COc1cccc(OC)c1OCC[NH+](C)CCOc1cc(C)c(O)cc1C(C)C,O,0,0,7.1,['7.10'],['pKa_prospector']
2776,C[NH2+]CCOc1cc(C)c(O)cc1C(C)C,O,0,0,9.32,['9.32'],['pKa_prospector']
2777,Cc1cc(OCC[NH2+]CC2CC(=O)c3ccccc3C2=O)c(C(C)C)cc1O,O,0,0,7.06,['7.06'],['pKa_prospector']
2778,CC(=O)Nc1cc(C)c(O)cc1C,O,0,0,10.11,['10.11'],['pKa_prospector']
2779,CC(=O)Oc1cc(C(C)C)c(OCC[NH+](C)C)cc1C,O,0,0,8.72,['8.72'],['pKa_prospector']
2780,Cc1cc(OCC[NH+](C)C)c(C(C)C)cc1OC1CCCCC1=O,O,0,0,8.45,['8.45'],['pKa_prospector']
2781,Cc1cc(OCC[NH+](C)C)c(C(C)C)cc1OS(=O)(=O)C12CCC(CC1=O)C2(C)C,O,0,0,8.44,['8.44'],['pKa_prospector']
2782,Cc1cnc([N-]S(=O)(=O)c2ccc(N)cc2)c(Br)c1,O,0,0,6.96,['6.96'],['pKa_prospector']
2783,Cc1cc(C)c(C)nc1C,O,0,0,7.9,['7.90'],['pKa_prospector']
2784,Cc1cc(C)c2[nH+]c(C)cc(N)c2c1,O,0,0,10.4,['10.40'],['pKa_prospector']
2785,Cc1cc(C)c2oc(N(N)CCC#N)nc2c1,O,0,0,3.25,['3.25'],['pKa_prospector']
2786,Cc1cc(Cl)c2ccc3cccnc3c2n1,O,0,0,4.53,['4.53'],['pKa_prospector']
2787,Cc1cc(N)c2ccccc2[nH+]1,O,0,0,9.42,['9.42'],['pKa_prospector']
2788,Cc1cc(C)cc(C(=O)OC2CC3CCC(C2)[NH+]3C)c1,O,0,0,8.75,['8.75'],['pKa_prospector']
2789,Cc1cc([O-])cc(C)c1C#N,O,0,0,8.21,['8.21'],['pKa_prospector']
2790,Cc1cc(O)cc(O)c1C(=N)c1ccccc1,O,0,0,6.75,['6.75'],['pKa_prospector']
2791,Cc1cc(N)cc(C)c1C,O,0,0,5.12,['5.12'],['pKa_prospector']
2792,Cc1cc(C(C)(C)C)cc(C)c1CC1=[NH+]CCN1,O,0,0,10.2,['10.20'],['pKa_prospector']
2793,Cc1cc(N)cc(C)c1[N+](=O)[O-],O,0,0,2.59,['2.59'],['pKa_prospector']
2794,Cc1cc([O-])cc(C)c1[N+](=O)[O-],O,0,0,8.24,['8.24'],['pKa_prospector']
2795,Cc1cc(Br)cc(C)c1N(C)C,O,0,0,4.36,['4.36'],['pKa_prospector']
2796,Cc1cc(Br)cc(C)c1N,O,0,0,3.54,['3.54'],['pKa_prospector']
2797,Cc1cc([N+](=O)[O-])cc(C)c1N,O,0,0,0.98,['0.98'],['pKa_prospector']
2798,Cc1cc(Br)cc(C)c1[NH+]=C1NCCN1,O,0,0,10.21,['10.21'],['pKa_prospector']
2799,Cc1cc(Cl)cc(C)c1[NH+]=C1NCCN1,O,0,0,10.25,['10.25'],['pKa_prospector']
2800,Cc1cc(Cl)cc(Cl)c1[NH+]=C1NCCN1,O,0,0,9.03,['9.03'],['pKa_prospector']
2801,CC(=O)Nc1c(C)cc(O)cc1C,O,0,0,9.95,['9.95'],['pKa_prospector']
2802,Cc1cc(C2(c3cc(C)c(O)c(Br)c3)OS(=O)(=O)c3ccccc32)cc(Br)c1O,O,0,0,6.33,['6.33'],['pKa_prospector']
2803,Cc1cc(Br)cc(C(N)=O)c1O,O,0,0,7.58,['7.58'],['pKa_prospector']
2804,Cc1cc(Br)cc(C(=O)NC(C)C)c1O,O,0,0,7.54,['7.54'],['pKa_prospector']
2805,CNC(=O)c1cc(Br)cc(C)c1O,O,0,0,7.52,['7.52'],['pKa_prospector']
2806,Cc1cc(C#N)cc(C)c1[O-],O,0,0,8.27,['8.27'],['pKa_prospector']
2807,Cc1cc([N+](=O)[O-])cc(C)c1[O-],O,0,0,7.19,['7.19'],['pKa_prospector']
2808,CC(=O)Nc1cc(C)c(O)c(C)c1,O,0,0,10.2,['10.20'],['pKa_prospector']
2809,Cc1cc([N+](=O)[O-])cc([N+](=O)[O-])c1[O-],O,0,0,4.36,['4.36'],['pKa_prospector']
2810,Cc1cc(Cl)cc(Cl)c1OCC(=O)[O-],O,0,0,3.13,['3.13'],['pKa_prospector']
2811,Cc1cc([O-])cc(C)c1S(C)(=O)=O,O,0,0,8.13,['8.13'],['pKa_prospector']
2812,Cc1cc(N)ccc1C(=O)[O-],O,0,0,4.83,['4.83'],['pKa_prospector']
2813,Cc1cc([N+](=O)[O-])ccc1C(=O)[O-],O,0,0,3.65,['3.65'],['pKa_prospector']
2814,Cc1cc(O)ccc1C1(c2ccc(O)cc2C)OS(=O)(=O)c2ccccc21,O,0,0,1.67,['1.67'],['pKa_prospector']
2815,Cc1cc(NC(=O)NC(N)=[NH2+])ccc1Cl,O,0,0,7.58,['7.58'],['pKa_prospector']
2816,Cc1cc(O)ccc1Cl,O,0,0,9.59,['9.59'],['pKa_prospector']
2817,Cc1cc(N)ccc1[N+](=O)[O-],O,0,0,1.5,['1.50'],['pKa_prospector']
2818,Cc1cc([O-])ccc1[N+](=O)[O-],O,0,0,7.33,['7.33'],['pKa_prospector']
2819,Cc1cc(Br)ccc1N,O,0,0,3.62,['3.62'],['pKa_prospector']
2820,Cc1cc(C(=O)[O-])ccc1N,O,0,0,4.62,['4.62'],['pKa_prospector']
2821,Cc1cc([N+](=O)[O-])ccc1N,O,0,0,1.04,['1.04'],['pKa_prospector']
2822,Cc1cc(Cl)ccc1[NH+]=C1NCCN1,O,0,0,9.87,['9.87'],['pKa_prospector']
2823,Cc1cc(O)ccc1N=Nc1ccc2c(c1)Cc1ccccc1-2,O,0,0,3.7,['3.70'],['pKa_prospector']
2824,CC(=O)Nc1ccc(O)cc1C,O,0,0,9.92,['9.92'],['pKa_prospector']
2825,Cc1cc([N+](=O)[O-])ccc1NN=C(C#N)C#N,O,0,0,5.5,['5.50'],['pKa_prospector']
2826,Cc1cc(Cl)ccc1[N-]N=C(C#N)C(=O)C(C)(C)C,O,0,0,6.4,['6.40'],['pKa_prospector']
2827,CC(=O)C(C#N)=N[N-]c1ccc(Cl)cc1C,O,0,0,5.65,['5.65'],['pKa_prospector']
2828,Cc1cc(Cl)ccc1N=NC(=S)NNc1ccc(Cl)cc1C,O,0,0,5.87,['5.87'],['pKa_prospector']
2829,Cc1cc(Cl)ccc1O,O,0,0,9.6,['9.60'],['pKa_prospector']
2830,CC(=O)Nc1ccc(O)c(C)c1,O,0,0,9.98,['9.98'],['pKa_prospector']
2831,CC(=O)Oc1ccc(OCC[NH+](C)C)cc1C,O,0,0,8.8,['8.80'],['pKa_prospector']
2832,Cc1cc(Cl)ccc1OCC(=O)[O-],O,0,0,3.28,['3.28'],['pKa_prospector']
2833,Cc1cc(Cl)ccc1OCCCC(=O)[O-],O,0,0,4.8,['4.80'],['pKa_prospector']
2834,Cc1cc(OCC(=O)[O-])ccc1S(C)(=O)=O,O,0,0,3,['3.00'],['pKa_prospector']
2835,Cc1cc(Br)cnc1[N-]S(=O)(=O)c1ccc(N)cc1,O,0,0,7.2,['7.20'],['pKa_prospector']
2836,Cc1cc(C)n(C)c(=N)n1,O,0,0,11.52,['11.52'],['pKa_prospector']
2837,Cc1cc(C)n(C)c(=O)n1,O,0,0,3.9,['3.90'],['pKa_prospector']
2838,Cc1cc(C)n(C)c(=S)n1,O,0,0,3.06,['3.06'],['pKa_prospector']
2839,Cc1cc([N-]S(=O)(=O)c2ccc(N)cc2)n(-c2ccccc2)n1,O,0,0,5.69,['5.69'],['pKa_prospector']
2840,CNc1nc(C)cc(C)n1,O,0,0,5.23,['5.23'],['pKa_prospector']
2841,Cc1cc(O)nc(NN)n1,O,0,0,3.8,['3.80'],['pKa_prospector']
2842,COc1cc(C)nc(NN)n1,O,0,0,6.2,['6.20'],['pKa_prospector']
2843,Cc1cc(N)nc(Nc2ccc(Cl)cc2)n1,O,0,0,6.6,['6.60'],['pKa_prospector']
2844,CNc1nccnc1-c1nc(C)cc(C)n1,O,0,0,2.9,['2.90'],['pKa_prospector']
2845,Cc1cc(N)nc2ccc3ccccc3c12,O,0,0,7.1,['7.10'],['pKa_prospector']
2846,Cc1cc(N)nc2c1ccc1ccccc12,O,0,0,6.7,['6.70'],['pKa_prospector']
2847,Cc1cc(C)c2ccc3c(C)cc(C)nc3c2n1,O,0,0,6.48,['6.48'],['pKa_prospector']
2848,Cc1cc(C)c2ccc3cccnc3c2n1,O,0,0,5.94,['5.94'],['pKa_prospector']
2849,Cc1cc(C)c2ccccc2n1,O,0,0,5.12,['5.12'],['pKa_prospector']
2850,CSc1cc(C)ncn1,O,0,0,3.16,['3.16'],['pKa_prospector']
2851,Cc1cc(C(=O)NNCc2ccccc2)no1,O,0,0,10.4,['10.40'],['pKa_prospector']
2852,Cc1cc([N-]S(=O)(=O)c2ccc(N)cc2)no1,O,0,0,5.81,['5.81'],['pKa_prospector']
2853,CC(=O)Nc1ccc(S(=O)(=O)[N-]c2cc(C)on2)cc1,O,0,0,5.54,['5.54'],['pKa_prospector']
2854,Cc1cc2c(OCC(O)C[NH2+]C(C)C)cccc2[nH]1,O,0,0,9.25,['9.25'],['pKa_prospector']
2855,Cc1cnc2c(c1)c(C)c(C)c1cc(C)cnc12,O,0,0,5.52,['5.52'],['pKa_prospector']
2856,Cc1cnc2c(c1)c(C)c(C)c1cccnc12,O,0,0,5.32,['5.32'],['pKa_prospector']
2857,Cc1cnc2c(cc(C)c3cccnc32)c1C,O,0,0,5.91,['5.91'],['pKa_prospector']
2858,Cc1cc2nc3c(=O)[nH]c(=O)nc-3n(CC(O)C(O)C(O)CO)c2cc1C,O,0,0,9.95,['9.95'],['pKa_prospector']
2859,Cc1cc2ncn(C3OC(CO)C(O)C(O)C3O)c2cc1C,O,0,0,4.6,['4.60'],['pKa_prospector']
2860,Cc1cc2ncn(C3OCC(O)C(O)C3O)c2cc1C,O,0,0,4.62,['4.62'],['pKa_prospector']
2861,Cc1cnc2c(c1)c(C)cc1c(C)c(C)cnc12,O,0,0,6.05,['6.05'],['pKa_prospector']
2862,Cc1cc2c(nn1)CCC2,O,0,0,4.93,['4.93'],['pKa_prospector']
2863,Cc1cc2c(nn1)CCCC2,O,0,0,4.96,['4.96'],['pKa_prospector']
2864,Cc1cc2c(s1)Nc1ccc(F)cc1[NH+]=C2N1CC[NH+](C)CC1,O,0,0,7.72,['7.72'],['pKa_prospector']
2865,Cc1cnc2c(c1)cc(C)c1cc(C)cnc12,O,0,0,5.25,['5.25'],['pKa_prospector']
2866,Cc1cnc2c(ccc3cc(C)cnc32)c1,O,0,0,5.15,['5.15'],['pKa_prospector']
2867,Cc1cnc2c(ccc3cccnc32)c1,O,0,0,4.98,['4.98'],['pKa_prospector']
2868,Cc1cc2ccccc2[nH]1,O,0,0,-0.1,['-0.10'],['pKa_prospector']
2869,Cc1cc(N)c2ccccc2c1,O,0,0,3.96,['3.96'],['pKa_prospector']
2870,Cc1cc2ccccc2c(C(=O)[O-])c1C,O,0,0,3.33,['3.33'],['pKa_prospector']
2871,Cc1cc2ccccc2cn1,O,0,0,5.64,['5.64'],['pKa_prospector']
2872,Cc1cc2ccccc2n1C,O,0,0,0.34,['0.34'],['pKa_prospector']
2873,Cc1cnc2ccccc2c1,O,0,0,5.17,['5.17'],['pKa_prospector']
2874,Cc1cc2cccnc2c2ncccc12,O,0,0,5.26,['5.26'],['pKa_prospector']
2875,Cc1ccc(C)c(C(=N)c2ccccc2)c1,O,0,0,6.79,['6.79'],['pKa_prospector']
2876,Cc1ccc(C)c(C(=O)[N-]S(=O)(=O)c2ccc(N)cc2)c1,O,0,0,4.72,['4.72'],['pKa_prospector']
2877,Cc1ccc(C)c(C(=O)[O-])c1,O,0,0,4.95,['4.95'],['pKa_prospector']
2878,Cc1ccc(C(=N)c2ccccc2)c(C)c1,O,0,0,6.79,['6.79'],['pKa_prospector']
2879,Cc1ccc(C(=O)[O-])c(C)c1,O,0,0,5.13,['5.13'],['pKa_prospector']
2880,Cc1ccc([NH+]=C2NCCN2)c(C)c1,O,0,0,10.61,['10.61'],['pKa_prospector']
2881,Cc1ccc(O)c(CO)c1,O,0,0,10.15,['10.15'],['pKa_prospector']
2882,Cc1ccc([NH+]=C2NCCN2)c(Cl)c1,O,0,0,9.48,['9.48'],['pKa_prospector']
2883,Cc1ccc(NN=C(C#N)C#N)c([N+](=O)[O-])c1,O,0,0,6,['6.00'],['pKa_prospector']
2884,Cc1ccc([O-])c([N+](=O)[O-])c1,O,0,0,7.63,['7.63'],['pKa_prospector']
2885,Cc1ccc(S(=O)(=O)[N-]C(=O)C(C)C)c([N+](=O)[O-])c1,O,0,0,4.04,['4.04'],['pKa_prospector']
2886,Cc1ccc(S(=O)(=O)[N-]C(=O)C(C)C)c(N)c1,O,0,0,5.44,['5.44'],['pKa_prospector']
2887,Cc1ccc(S(N)(=O)=O)c(NC(=O)C(C)C)c1,O,0,0,9.56,['9.56'],['pKa_prospector']
2888,Cc1ccc(C)c(NN=C(C#N)C#N)c1,O,0,0,6.9,['6.90'],['pKa_prospector']
2889,Cc1ccc(C(C)C)c(O)c1,O,0,0,10.31,['10.31'],['pKa_prospector']
2890,Cc1ccc([N+](=O)[O-])c([O-])c1,O,0,0,7.34,['7.34'],['pKa_prospector']
2891,COc1cc(C)ccc1[NH+]=C1NCCN1,O,0,0,10.6,['10.60'],['pKa_prospector']
2892,Cc1ccc(Cl)c(OCC(O)C[NH2+]C(C)(C)C)c1,O,0,0,9.4,['9.40'],['pKa_prospector']
2893,Cc1ccc(C(C)C)c(OCC[NH+](C)C)c1,O,0,0,8.66,['8.66'],['pKa_prospector']
2894,Cc1ccc(C(=O)NO)c(C)n1,O,0,0,8.5,['8.50'],['pKa_prospector']
2895,Cc1ccc(O)c2ncccc12,O,0,0,9.9,['9.90'],['pKa_prospector']
2896,Cc1ccc(N)c2cc3ccccc3nc12,O,0,0,4.79,['4.79'],['pKa_prospector']
2897,Cc1ccc(C(=O)C(=NO)SCC[NH+](C)C)cc1,O,0,0,7.76,['7.76'],['pKa_prospector']
2898,CC1=NN(c2ccccc2)C(=O)C1C(=O)c1ccc(C)cc1,O,0,0,4.02,['4.02'],['pKa_prospector']
2899,Cc1ccc(C(=O)NO)cc1,O,0,0,8.9,['8.90'],['pKa_prospector']
2900,Cc1ccc(C(=O)c2csc(S(N)(=O)=O)c2)cc1,O,0,0,9.3,['9.30'],['pKa_prospector']
2901,Cc1ccc(C(=O)c2ccc(CC(=O)[O-])n2C)cc1,O,0,0,3.5,['3.50'],['pKa_prospector']
2902,Cc1ccc(C(=O)c2ccc3n2CCC3C(=O)[O-])cc1,O,0,0,3.44,['3.44'],['pKa_prospector']
2903,Cc1ccc(C(=S)C=C(N)C(F)(F)F)cc1,O,0,0,9.7,['9.70'],['pKa_prospector']
2904,CC(=O)CC(c1ccc(C)cc1)c1c([O-])c2ccccc2oc1=O,O,0,0,4.9,['4.90'],['pKa_prospector']
2905,Cc1ccc(C(CC[NH+](C)C)c2ccccc2)cc1,O,0,0,8.57,['8.57'],['pKa_prospector']
2906,Cc1ccc(C(c2ccc(O)cc2)c2ccccc2C(=O)[O-])cc1,O,0,0,10.33,['10.33'],['pKa_prospector']
2907,Cc1ccc(C(c2ccccc2)N2CC[NH+](C)CC2)cc1,O,0,0,8.21,['8.21'],['pKa_prospector']
2908,Cc1ccc(C2=CCC[NH2+]2)cc1,O,0,0,7.55,['7.55'],['pKa_prospector']
2909,Cc1ccc(C2CCC[NH2+]2)cc1,O,0,0,4.05,['4.05'],['pKa_prospector']
2910,Cc1ccc(C=CC(=O)[O-])cc1,O,0,0,4.56,['4.56'],['pKa_prospector']
2911,Cc1ccc(CC(=O)[O-])cc1,O,0,0,4.83,['4.83'],['pKa_prospector']
2912,Cc1ccc(CCC(=O)[O-])cc1,O,0,0,5.3,['5.30'],['pKa_prospector']
2913,Cc1ccc(N(C)C)cc1,O,0,0,5.29,['5.29'],['pKa_prospector']
2914,Cc1ccc(N(CC2=[NH+]CCN2)c2cccc(O)c2)cc1,O,0,0,7.7,['7.70'],['pKa_prospector']
2915,Cc1ccc(N2CCCC2)cc1,O,0,0,4.7,['4.70'],['pKa_prospector']
2916,Cc1ccc(N=Nc2ccc(N)cc2)cc1,O,0,0,3.04,['3.04'],['pKa_prospector']
2917,Cc1ccc(NC(=O)C[NH+]2CCCCC2)cc1,O,0,0,8.02,['8.02'],['pKa_prospector']
2918,Cc1ccc(NC(=O)[N-]S(=O)(=O)c2ccc(Cl)cc2)cc1,O,0,0,4.41,['4.41'],['pKa_prospector']
2919,Cc1ccc(NC(=O)[N-]S(=O)(=O)c2ccc([N+](=O)[O-])cc2)cc1,O,0,0,3.78,['3.78'],['pKa_prospector']