,Solute SMILES,Solvent SMILES,Solute CAS,Solute IUPAC,pKa (avg),pKa (all),Source
0,C#CCCOCn1cc[n+](Cc2ccccc2)c1C=NO,O,0,0,7.94,['7.94'],['pKa_prospector']
1,C#CC[NH+](CC#C)CC#C,O,0,0,3.09,['3.09'],['pKa_prospector']
2,C#CCN(C1=[NH+]CCN1)c1c(Br)cccc1Br,O,0,0,10.1,['10.10'],['pKa_prospector']
3,C#CC[NH+]1CCC(c2ccccc2)CC1,O,0,0,6.99,['6.99'],['pKa_prospector']
4,C#CC[NH2+]CCCCc1ccccc1,O,0,0,8.12,['8.12'],['pKa_prospector']
5,C#CC[NH2+]CCCc1ccccc1,O,0,0,7.85,['7.85'],['pKa_prospector']
6,C#CC[NH2+]CCc1ccccc1,O,0,0,7.47,['7.47'],['pKa_prospector']
7,C#CC[NH2+]Cc1ccc(Cl)cc1Cl,O,0,0,6.26,['6.26'],['pKa_prospector']
8,C#CC[NH2+]Cc1ccccc1,O,0,0,7.12,['7.12'],['pKa_prospector']
9,C#CCNc1ccccc1,O,0,0,3.06,['3.06'],['pKa_prospector']
10,O=C([O-])C(O)=C(O)C(=O)[O-],O,0,0,1.14,['1.14'],['pKa_prospector']
11,NC(=CC(=S)C(F)(F)F)C(F)(F)F,O,0,0,6.84,['6.84'],['pKa_prospector']
12,O=C([O-])C(Cl)=C(Cl)Cl,O,0,0,1.15,['1.15'],['pKa_prospector']
13,O=C([O-])C=CC(F)(F)C(F)(F)C(F)(F)F,O,0,0,3.23,['3.23'],['pKa_prospector']
14,O=C([O-])C=CC(F)(F)F,O,0,0,3.25,['3.25'],['pKa_prospector']
15,N=C(N[NH3+])C(F)(F)C(F)(F)C(F)(F)C(F)(F)C(F)(F)F,O,0,0,3.17,['3.17'],['pKa_prospector']
16,N=C(N[NH3+])C(F)(F)C(F)(F)C(F)(F)F,O,0,0,3.24,['3.24'],['pKa_prospector']
17,N=C(N)NS(N)(=O)=O,O,0,0,1.83,['1.83'],['pKa_prospector']
18,ON=CC(Cl)(Cl)Cl,O,0,0,9.26,['9.26'],['pKa_prospector']
19,O=C([O-])C(Br)(Br)Br,O,0,0,0.66,['0.66'],['pKa_prospector']
20,O=C([O-])C(F)(F)C(F)(F)C(F)(F)F,O,0,0,0.17,['0.17'],['pKa_prospector']
21,O=C([O-])C(Cl)(Cl)Cl,O,0,0,0.64,['0.64'],['pKa_prospector']
22,NC(CC(N)=[NH+]O)=[NH+]O,O,0,0,4.73,['4.73'],['pKa_prospector']
23,O=C(CCl)C(Cl)=NO,O,0,0,6.61,['6.61'],['pKa_prospector']
24,O=C([O-])CBr,O,0,0,2.9,['2.90'],['pKa_prospector']
25,O=C([O-])CI,O,0,0,3.15,['3.15'],['pKa_prospector']
26,O=C([O-])CNC(=O)CCl,O,0,0,3.38,['3.38'],['pKa_prospector']
27,O=C([O-])CS(=O)(=O)[O-],O,0,0,4.05,['4.05'],['pKa_prospector']
28,O=C([O-])C(Br)CBr,O,0,0,2.2,['2.20'],['pKa_prospector']
29,O=C([O-])CC(Br)C(=O)[O-],O,0,0,2.69,['2.69'],['pKa_prospector']
30,O=C([O-])C(O)C(Cl)C(=O)[O-],O,0,0,2.32,['2.32'],['pKa_prospector']
31,O=C([O-])C(F)(F)C(F)(F)C(F)(F)C(F)F,O,0,0,2.65,['2.65'],['pKa_prospector']
32,O=C([O-])C(O)C(O)C(O)C(O)CO,O,0,0,3.77,['3.77'],['pKa_prospector']
33,O=C([O-])C(F)(F)C(F)(F)C(F)(F)C(F)(F)C(F)(F)C(F)F,O,0,0,2.68,['2.68'],['pKa_prospector']
34,OC(O)C(Cl)(Cl)Cl,O,0,0,9.85,['9.85'],['pKa_prospector']
35,[NH3+]CC(Cl)(Cl)Cl,O,0,0,5.47,['5.47'],['pKa_prospector']
36,OCC(Cl)(Cl)Cl,O,0,0,12.24,['12.24'],['pKa_prospector']
37,O=[N+]([O-])C(CO)([N+](=O)[O-])[N+](=O)[O-],O,0,0,2.37,['2.37'],['pKa_prospector']
38,OCC1OC(O)C(O)C(O)C1O,O,0,0,12.1,['12.10'],['pKa_prospector']
39,O=C([O-])CCBr,O,0,0,3.99,['3.99'],['pKa_prospector']
40,NC(=O)CCCC(=O)[O-],O,0,0,4.6,['4.60'],['pKa_prospector']
41,O=NN(CCCl)C(=O)NC(CCC(=O)[O-])C(=O)[O-],O,0,0,4.17,['4.17'],['pKa_prospector']
42,O=C([O-])CCCBr,O,0,0,4.58,['4.58'],['pKa_prospector']
43,O=C([O-])CCCC(F)(F)F,O,0,0,4.49,['4.49'],['pKa_prospector']
44,O=C([O-])CCCI,O,0,0,4.64,['4.64'],['pKa_prospector']
45,NC(=O)NCCCC(=O)[O-],O,0,0,4.68,['4.68'],['pKa_prospector']
46,O=C([O-])CCC(F)(F)C(F)(F)C(F)(F)F,O,0,0,4.18,['4.18'],['pKa_prospector']
47,[NH3+]CCCC(Cl)(Cl)Cl,O,0,0,9.93,['9.93'],['pKa_prospector']
48,O=C([O-])CCC(F)(F)F,O,0,0,4.16,['4.16'],['pKa_prospector']
49,O=C([O-])CCCC=NO,O,0,0,4.64,['4.64'],['pKa_prospector']
50,O=C([O-])CCCCBr,O,0,0,4.72,['4.72'],['pKa_prospector']
51,NC(=O)CCCCC(=O)[O-],O,0,0,4.63,['4.63'],['pKa_prospector']
52,[NH3+]CCCCCCBr,O,0,0,9.5,['9.50'],['pKa_prospector']
53,[NH3+]CCCCCCCCCCCC(=O)[O-],O,0,0,4.65,['4.65'],['pKa_prospector']
54,[NH3+]CCCCCCCCCCS(=O)(=O)[O-],O,0,0,11.35,['11.35'],['pKa_prospector']
55,O=C([O-])CCCCCl,O,0,0,4.7,['4.70'],['pKa_prospector']
56,O=C([O-])CCCCI,O,0,0,4.77,['4.77'],['pKa_prospector']
57,[NH3+]CCCCC(Cl)(Cl)Cl,O,0,0,10.12,['10.12'],['pKa_prospector']
58,[NH3+]CCCCCBr,O,0,0,9.62,['9.62'],['pKa_prospector']
59,[NH3+]CCCCCS(=O)(=O)[O-],O,0,0,10.95,['10.95'],['pKa_prospector']
60,[NH3+]CCCCS(=O)(=O)[O-],O,0,0,10.65,['10.65'],['pKa_prospector']
61,ClCC[NH+](CCCl)CCCl,O,0,0,4.37,['4.37'],['pKa_prospector']
62,NS(=O)(=O)c1nn2c(=O)n(CCCl)c(=O)nc2s1,O,0,0,7.1,['7.10'],['pKa_prospector']
63,O=C([O-])CCI,O,0,0,4.09,['4.09'],['pKa_prospector']
64,[NH3+]CCC(Cl)(Cl)Cl,O,0,0,9.57,['9.57'],['pKa_prospector']
65,[NH3+]CCC=C(Cl)Cl,O,0,0,10.3,['10.30'],['pKa_prospector']
66,[NH3+]CCCBr,O,0,0,8.93,['8.93'],['pKa_prospector']
67,[NH3+]CCCS(=O)(=O)[O-],O,0,0,10.05,['10.05'],['pKa_prospector']
68,NC(=O)NCCC(=O)[O-],O,0,0,4.49,['4.49'],['pKa_prospector']
69,OCCCNc1nc(NCCCO)nc(NCCCO)n1,O,0,0,5.48,['5.48'],['pKa_prospector']
70,OCC[NH+](CCO)CCO,O,0,0,7.81,['7.81'],['pKa_prospector']
71,Nc1nc(N)nc(N(CCO)CCO)n1,O,0,0,5.11,['5.11'],['pKa_prospector']
72,Nc1nc(NCCO)nc(NCCO)n1,O,0,0,5.18,['5.18'],['pKa_prospector']
73,Nc1nc(NCO)nc(NCO)n1,O,0,0,4.8,['4.80'],['pKa_prospector']
74,OCNc1nc(NCO)nc(NCO)n1,O,0,0,4,['4.00'],['pKa_prospector']
75,[NH3+]Cc1c(F)c(F)c(F)c(F)c1F,O,0,0,7.67,['7.67'],['pKa_prospector']
76,NS(=O)(=O)C1=NN2C(=NC(=O)NS2(=O)=O)S1,O,0,0,7.2,['7.20'],['pKa_prospector']
77,ON=C1OC(C(Cl)(Cl)Cl)OC1C(Cl)(Cl)Cl,O,0,0,11.19,['11.19'],['pKa_prospector']
78,O=C([O-])C1OC(O)C(O)C(O)C1O,O,0,0,3.18,['3.18'],['pKa_prospector']
79,O=C1C=C([O-])C(Br)O1,O,0,0,2.23,['2.23'],['pKa_prospector']
80,O=C1C=C([O-])C(Cl)O1,O,0,0,2.13,['2.13'],['pKa_prospector']
81,O=C1C=C([O-])C(I)O1,O,0,0,2.31,['2.31'],['pKa_prospector']
82,O=C1C=C([O-])C([N+](=O)[O-])O1,O,0,0,1.68,['1.68'],['pKa_prospector']
83,O=C1C=CC(=NO)C(Cl)=C1,O,0,0,5.68,['5.68'],['pKa_prospector']
84,O=C([O-])CN1C(=O)C=CC1=O,O,0,0,2.88,['2.88'],['pKa_prospector']
85,O=C([O-])CCN1C(=O)C=CC1=O,O,0,0,4.18,['4.18'],['pKa_prospector']
86,O=C([O-])CCCN1C(=O)C=CC1=O,O,0,0,4.56,['4.56'],['pKa_prospector']
87,O=C([O-])CCCCN1C(=O)C=CC1=O,O,0,0,4.62,['4.62'],['pKa_prospector']
88,O=C([O-])CCCCCN1C(=O)C=CC1=O,O,0,0,4.72,['4.72'],['pKa_prospector']
89,O=C([O-])CCCCCCCN1C(=O)C=CC1=O,O,0,0,4.9,['4.90'],['pKa_prospector']
90,O=C([O-])C1CC#CC#CC1,O,0,0,3.89,['3.89'],['pKa_prospector']
91,ON=C1CSCSC1,O,0,0,11.19,['11.19'],['pKa_prospector']
92,ON=C1CSCS1,O,0,0,10.86,['10.86'],['pKa_prospector']
93,O=C1CSC(=[NH+]O)N1,O,0,0,12.39,['12.39'],['pKa_prospector']
94,[NH3+]C12CC3CC(CC(C3)C1)C2,O,0,0,10.55,['10.55'],['pKa_prospector']
95,O=NN(CCCl)C(=O)NC1CCC(=O)NC1=O,O,0,0,7.9,['7.90'],['pKa_prospector']
96,O=C([O-])C1CCCC(O)C1,O,0,0,4.71,['4.71'],['pKa_prospector']
97,O=C([O-])C1CCC(O)CC1,O,0,0,5.2,['5.20'],['pKa_prospector']
98,N#CC12CCC(C(=O)[O-])(CC1)CC2,O,0,0,5.9,['5.90'],['pKa_prospector']
99,O=C([O-])C12CCC(Br)(CC1)CC2,O,0,0,6.08,['6.08'],['pKa_prospector']
100,O=C([O-])C12CCC(O)(CC1)CC2,O,0,0,6.33,['6.33'],['pKa_prospector']
101,O=C([O-])C12CCC(CC1)CC2,O,0,0,6.75,['6.75'],['pKa_prospector']
102,O=C([O-])CN=C1CCCC1,O,0,0,8.72,['8.72'],['pKa_prospector']
103,O=C([O-])CN=C1CCCCC1,O,0,0,9.48,['9.48'],['pKa_prospector']
104,NC(=N[N+](=O)[O-])NN=C1CCCCC1,O,0,0,8.8,['8.80'],['pKa_prospector']
105,N#CC1CCCCC1C(=O)[O-],O,0,0,3.86,['3.86'],['pKa_prospector']
106,O=C([O-])C1CCCCC1O,O,0,0,4.74,['4.74'],['pKa_prospector']
107,[NH3+]C1CCCCC1Cl,O,0,0,9.49,['9.49'],['pKa_prospector']
108,[NH3+]C1CCCCCC1O,O,0,0,9.25,['9.25'],['pKa_prospector']
109,O=NN(CCCl)C(=O)NC(C(=O)[O-])C1CCCC1,O,0,0,4.04,['4.04'],['pKa_prospector']
110,O=C([O-])COC1CCCC1,O,0,0,3.7,['3.70'],['pKa_prospector']
111,O=C([O-])C1C=CCCCC1,O,0,0,4.58,['4.58'],['pKa_prospector']
112,N#CC(C(=O)[O-])C1CCCCC1,O,0,0,2.37,['2.37'],['pKa_prospector']
113,O=NN(CCCl)C(=O)NC(C(=O)[O-])C1CCCCC1,O,0,0,3.57,['3.57'],['pKa_prospector']
114,C1CCC(C23CCC[NH+]2CCO3)CC1,O,0,0,10.29,['10.29'],['pKa_prospector']
115,C1=C(C2CCCCC2)[NH2+]CC1,O,0,0,7.91,['7.91'],['pKa_prospector']
116,O=C([O-])C1CCCCC1C1CCCCC1,O,0,0,6.53,['6.53'],['pKa_prospector']
117,C1CCC(C2CCC[NH2+]2)CC1,O,0,0,10.67,['10.67'],['pKa_prospector']
118,O=C([O-])CCC1CCCCC1,O,0,0,4.91,['4.91'],['pKa_prospector']
119,O=C([O-])CCCC1CCCCC1,O,0,0,4.95,['4.95'],['pKa_prospector']
120,O=C([O-])COCC1CCCCC1,O,0,0,3.9,['3.90'],['pKa_prospector']
121,C1CCC(Cc2nnn[n-]2)CC1,O,0,0,5.37,['5.37'],['pKa_prospector']
122,O=C([O-])COC1CCCCC1,O,0,0,3.54,['3.54'],['pKa_prospector']
123,O=C([O-])CSC1CCCCC1,O,0,0,4.49,['4.49'],['pKa_prospector']
124,O=C1NC(=S)NC12CCCCC2,O,0,0,8.79,['8.79'],['pKa_prospector']
125,C1CCC2=[NH+]CCCN2CC1,O,0,0,14.3,['14.30'],['pKa_prospector']
126,O=C([O-])COC1CCC2CCCCC2C1,O,0,0,3.64,['3.64'],['pKa_prospector']
127,O=C([O-])C1=CCCCCC1,O,0,0,5.01,['5.01'],['pKa_prospector']
128,O=C([O-])C[NH+]1CCCCCC1,O,0,0,9.48,['9.48'],['pKa_prospector']
129,S=C(S)N1CCCC1,O,0,0,3,['3.00'],['pKa_prospector']
130,OCCN(CCO)c1nc(N2CCCCC2)c2nc(N(CCO)CCO)nc(N3CCCCC3)c2n1,O,0,0,6.4,['6.40'],['pKa_prospector']
131,O=c1c2c(nc3n1CCC3)CCCC2,O,0,0,3.18,['3.18'],['pKa_prospector']
132,O=c1c2c(nc3n1CCCC3)CCCC2,O,0,0,4.47,['4.47'],['pKa_prospector']
133,Nc1c2c([nH+]c3c1CCC3)CCCC2,O,0,0,10.2,['10.20'],['pKa_prospector']
134,Nc1c2c([nH+]c3c1CCCC3)CCCC2,O,0,0,11,['11.00'],['pKa_prospector']
135,Nc1c2c([nH+]c3c1CCCO3)CCCC2,O,0,0,7.8,['7.80'],['pKa_prospector']
136,C1CCc2c(nnc3c2CCCC3)C1,O,0,0,6.12,['6.12'],['pKa_prospector']
137,C1CCc2nnc3c(c2CC1)CCCC3,O,0,0,6.03,['6.03'],['pKa_prospector']
138,O=c1c2c(nc3n1CCCC3)CCC2,O,0,0,3.46,['3.46'],['pKa_prospector']
139,O=C1C=C([O-])CCN1C1OC(CO)C(O)C1O,O,0,0,5.99,['5.99'],['pKa_prospector']
140,OCC1=CC[NH+]2CCC(O)C12,O,0,0,8.88,['8.88'],['pKa_prospector']
141,OCC1CC[NH+]2CCC(O)C12,O,0,0,10.2,['10.20'],['pKa_prospector']
142,N#CC1=C[NH+]2CCC1CC2,O,0,0,5.84,['5.84'],['pKa_prospector']
143,NC(=O)C1=C[NH+]2CCC1CC2,O,0,0,7.32,['7.32'],['pKa_prospector']
144,N#CC1CN2CCC1CC2,O,0,0,7.81,['7.81'],['pKa_prospector']
145,NC(=O)C1C[NH+]2CCC1CC2,O,0,0,9.67,['9.67'],['pKa_prospector']
146,C1C[NH+]2CCC3OCC1C32,O,0,0,9.4,['9.40'],['pKa_prospector']
147,O=[N+]([O-])N=C1NCCN1,O,0,0,-1.36,['-1.36'],['pKa_prospector']
148,O=[N+]([O-])N=C1NCCCN1,O,0,0,-0.71,['-0.71'],['pKa_prospector']
149,NS(=O)(=O)C1=NN2CCS(=O)(=O)N=C2S1,O,0,0,6.7,['6.70'],['pKa_prospector']
150,O=C1NCCSC1=NO,O,0,0,9.07,['9.07'],['pKa_prospector']
151,ON=C1COCCS1,O,0,0,10.94,['10.94'],['pKa_prospector']
152,ON=C1CSCCS1,O,0,0,11.3,['11.30'],['pKa_prospector']
153,ON=C1SCCS1,O,0,0,10.81,['10.81'],['pKa_prospector']
154,Nc1c2c([nH+]c3c1CCCO3)CCC2,O,0,0,7.8,['7.80'],['pKa_prospector']
155,O=c1c2c(nc3n1CCC3)CCC2,O,0,0,2.24,['2.24'],['pKa_prospector']
156,C1N2CN3CN1C[NH+](C2)C3,O,0,0,6.3,['6.30'],['pKa_prospector']
157,ON=C1SCSCS1,O,0,0,9.98,['9.98'],['pKa_prospector']
158,C=C(CC(=O)c1ccc(-c2ccccc2Cl)cc1)C(=O)[O-],O,0,0,5.3,['5.30'],['pKa_prospector']
159,C=CC1C[NH+]2CCC1CC2C(O)c1ccnc2ccc(O)cc12,O,0,0,7.63,['7.63'],['pKa_prospector']
160,C=CCC1(C2C=CCC2)C(=O)NC(=O)NC1=O,O,0,0,7.8,['7.80'],['pKa_prospector']
161,C=CCC1(CC(=C)Br)C(=O)NC(=O)NC1=O,O,0,0,7.7,['7.70'],['pKa_prospector']
162,C=CCC1(CC=C)C(=O)NC(=O)NC1=O,O,0,0,7.72,['7.72'],['pKa_prospector']
163,C=CCC1(CC=C)SC(=O)[N-]C1=O,O,0,0,6.14,['6.14'],['pKa_prospector']
164,C=CCC1SC(=[NH+]O)NC1=O,O,0,0,11.85,['11.85'],['pKa_prospector']
165,C=CCCCCCCCCC(=O)[O-],O,0,0,5.19,['5.19'],['pKa_prospector']
166,C=CCCN(C1=[NH+]CCN1)c1c(Br)cccc1Br,O,0,0,11.2,['11.20'],['pKa_prospector']
167,C=CC[NH+](CC=C)CC=C,O,0,0,8.31,['8.31'],['pKa_prospector']
168,C=CCN(CC=C)S(=O)(=O)c1ccc(-c2ccccc2C(=O)[O-])cc1,O,0,0,3.69,['3.69'],['pKa_prospector']
169,C=CC[NH+](CC=C)CCC(C(N)=O)(c1ccccc1)c1ccccn1,O,0,0,8.11,['8.11'],['pKa_prospector']
170,C=CCN(C1=[NH+]CCN1)c1c(Br)cccc1Br,O,0,0,10.7,['10.70'],['pKa_prospector']
171,C=CCN(C1=[NH+]CCN1)c1c(Cl)cccc1Cl,O,0,0,10.42,['10.42'],['pKa_prospector']
172,C=CC[NH+]1CCC23CCCCC2C1Cc1ccc(O)cc13,O,0,0,8.5,['8.50'],['pKa_prospector']
173,C=CC[NH+]1CCC23c4c5ccc(O)c4OC2C(=O)CCC3(O)C1C5,O,0,0,7.88,['7.88'],['pKa_prospector']
174,C=CC[NH+]1CCC23c4c5ccc(O)c4OC2C(O)C=CC3C1C5,O,0,0,7.7,['7.70'],['pKa_prospector']
175,C=CC[NH+]1CCc2cccc(Cl)c2CC1,O,0,0,7.4,['7.40'],['pKa_prospector']
176,C=CCNC(=O)[N-]S(=O)(=O)c1ccc(Cl)cc1,O,0,0,4.23,['4.23'],['pKa_prospector']
177,C=CCNC(=O)[N-]S(=O)(=O)c1ccccc1,O,0,0,4.7,['4.70'],['pKa_prospector']
178,C=CCNc1ccccc1,O,0,0,4.17,['4.17'],['pKa_prospector']
179,C=CCOc1noc2c1C[NH2+]CC2,O,0,0,7.5,['7.50'],['pKa_prospector']
180,C=CCOc1cc(N)ccc1C(=O)[O-],O,0,0,5.01,['5.01'],['pKa_prospector']
181,C=CCOc1ccc(CC(=O)[O-])cc1Cl,O,0,0,4.5,['4.50'],['pKa_prospector']
182,C=CCOc1nc(N)nc(N)n1,O,0,0,3.43,['3.43'],['pKa_prospector']
183,CC#CC(C)(C)OCn1cc[n+](C)c1C=NO,O,0,0,7.96,['7.96'],['pKa_prospector']
184,CC#CC(C)OCn1cc[n+](C)c1C=NO,O,0,0,8.03,['8.03'],['pKa_prospector']
185,CC#CCCOCn1cc[n+](C)c1C=NO,O,0,0,8.04,['8.04'],['pKa_prospector']
186,CC#CCOC(C(=O)C[NH+](C)C)(c1ccccc1)c1ccccc1,O,0,0,6.92,['6.92'],['pKa_prospector']
187,C=C(C)CC(OCn1cc[n+](C)c1C=NO)C(=C)C,O,0,0,7.91,['7.91'],['pKa_prospector']
188,C=C(C)CC(C)(C)C=NO,O,0,0,12.28,['12.28'],['pKa_prospector']
189,C=C(C)CCN(C1=[NH+]CCN1)c1c(Br)cccc1Br,O,0,0,10.9,['10.90'],['pKa_prospector']
190,C=C(C)CCOCn1cc[n+](C)c1C=NO,O,0,0,8.03,['8.03'],['pKa_prospector']
191,C=C(C)CN(C1=[NH+]CCN1)c1c(Br)cccc1Br,O,0,0,10.71,['10.71'],['pKa_prospector']
192,C=C(C)COCn1cc[n+](C)c1C=NO,O,0,0,7.99,['7.99'],['pKa_prospector']
193,CC(=CC(C)=Nc1ccccc1)Nc1ccccc1,O,0,0,7.2,['7.20'],['pKa_prospector']
194,CC(=CC(=S)C(F)(F)C(F)F)Nc1ccccc1,O,0,0,10.52,['10.52'],['pKa_prospector']
195,C[NH2+]C(C)=CC(=S)C(F)(F)F,O,0,0,12.3,['12.30'],['pKa_prospector']
196,CC(=CC(=S)C(F)(F)F)Nc1ccccc1,O,0,0,10.2,['10.20'],['pKa_prospector']
197,COC1C(OC(=O)C=CC=CC=CC=CC(=O)[O-])CCC2(CO2)C1C1(C)OC1CC=C(C)C,O,0,0,4.51,['4.51'],['pKa_prospector']
198,CC(C)=CCN(C1=[NH+]CCN1)c1c(Br)cccc1Br,O,0,0,10.75,['10.75'],['pKa_prospector']
199,CC(C)=CCOCn1cc[n+](C)c1C=NO,O,0,0,8.05,['8.05'],['pKa_prospector']
200,CC(C)=CCn1cnc(N)c2ncnc1-2,O,0,0,6,['6.00'],['pKa_prospector']
201,CC(=[NH2+])Nc1ccc(Cl)cc1,O,0,0,9.5,['9.50'],['pKa_prospector']
202,CC(=[NH2+])Nc1ccc(-c2ccccc2)cc1,O,0,0,9.66,['9.66'],['pKa_prospector']
203,CC(C=NNC(N)=[NH2+])=NNC(N)=[NH2+],O,0,0,8.24,['8.24'],['pKa_prospector']
204,CC(=NNC(N)=[NH2+])c1cccs1,O,0,0,8.9,['8.90'],['pKa_prospector']
205,CC(C)=NNC(N)=N[N+](=O)[O-],O,0,0,8.6,['8.60'],['pKa_prospector']
206,CC(=NNC(N)=[NH+]c1ccccc1)c1ccccc1,O,0,0,8.1,['8.10'],['pKa_prospector']
207,CC(=NNc1c([N+](=O)[O-])cc(C(F)(F)F)cc1[N+](=O)[O-])C(F)(F)F,O,0,0,6.93,['6.93'],['pKa_prospector']
208,CC(C)=NNc1ccc([N+](=O)[O-])cc1[N+](=O)[O-],O,0,0,6.83,['6.83'],['pKa_prospector']
209,CC(=NO)C(C)(C)CCCCC[NH3+],O,0,0,9.12,['9.12'],['pKa_prospector']
210,CC(=NO)C(C)(C)CCC[NH3+],O,0,0,9.14,['9.14'],['pKa_prospector']
211,CC(=NO)C(C)(C)[N+](=O)[O-],O,0,0,10.66,['10.66'],['pKa_prospector']
212,CSC(C)(C)C(C)=NO,O,0,0,11.72,['11.72'],['pKa_prospector']
213,CC(=NO)C(Cl)Cl,O,0,0,11.14,['11.14'],['pKa_prospector']
214,CC(CSC(C)(C)C)=NO,O,0,0,11.95,['11.95'],['pKa_prospector']
215,C=CCSCC(C)=NO,O,0,0,11.72,['11.72'],['pKa_prospector']
216,CC(=[NH+]O)N1CCCCC1,O,0,0,14.3,['14.30'],['pKa_prospector']
217,CC(=[NH+]O)N1CCOCC1,O,0,0,13.99,['13.99'],['pKa_prospector']
218,CC(=NO)S(C)(=O)=O,O,0,0,8.73,['8.73'],['pKa_prospector']
219,CC(=NO)SCC(=O)N(C)C,O,0,0,11.27,['11.27'],['pKa_prospector']
220,CC(=NO)SCC(=O)N1CCCC1,O,0,0,11.53,['11.53'],['pKa_prospector']
221,CC(=NO)SCC(=O)N1CCOCC1,O,0,0,11.45,['11.45'],['pKa_prospector']
222,CC(=NO)SCCC#N,O,0,0,11.35,['11.35'],['pKa_prospector']
223,CC(=NO)c1ccc([N+](=O)[O-])cc1,O,0,0,9.84,['9.84'],['pKa_prospector']
224,CC(=NO)c1cccc([N+](=O)[O-])c1,O,0,0,10.13,['10.13'],['pKa_prospector']
225,CC(=NO)c1ccccc1,O,0,0,11.17,['11.17'],['pKa_prospector']
226,CON=C(C)C(=NO)C(=O)N(C)C,O,0,0,9.46,['9.46'],['pKa_prospector']
227,CC(Nc1ccccc1)=[NH+]c1ccccc1,O,0,0,8.3,['8.30'],['pKa_prospector']
228,CC(=O)C(C#N)=N[N-]c1cc(Cl)cc(Cl)c1,O,0,0,4.9,['4.90'],['pKa_prospector']
229,CC(=O)C(C#N)=N[N-]c1cc(C(F)(F)F)ccc1Cl,O,0,0,4.6,['4.60'],['pKa_prospector']
230,CC(=O)C(C#N)=N[N-]c1ccc(Cl)c(Cl)c1,O,0,0,5.1,['5.10'],['pKa_prospector']
231,CC(=O)C(C#N)=N[N-]c1ccc(Cl)cc1,O,0,0,5.4,['5.40'],['pKa_prospector']
232,CC(=O)C(C#N)=N[N-]c1ccc(SC(F)(F)F)cc1,O,0,0,5.55,['5.55'],['pKa_prospector']
233,CC(=O)C(C#N)=N[N-]c1ccc([N+](=O)[O-])cc1[N+](=O)[O-],O,0,0,4.2,['4.20'],['pKa_prospector']
234,CC(=O)C(C#N)=N[N-]c1ccc2c(c1)OC(F)(F)C(F)(F)O2,O,0,0,4.8,['4.80'],['pKa_prospector']
235,CC(=O)C(C#N)=N[N-]c1cccc(Cl)c1,O,0,0,5.6,['5.60'],['pKa_prospector']
236,CC(=O)C(C#N)=N[N-]c1ccccc1Cl,O,0,0,5.55,['5.55'],['pKa_prospector']
237,CC(=O)C(=NO)C(=O)N(C)C,O,0,0,8.2,['8.20'],['pKa_prospector']
238,CC(=O)C(CC[NH+]1CCOCC1)(c1ccccc1)c1ccccc1,O,0,0,6.83,['6.83'],['pKa_prospector']
239,CC(=O)C(C[NH+]1CCCCC1)c1ccccc1,O,0,0,8.8,['8.80'],['pKa_prospector']
240,CC(=O)C(C[NH+]1CCOCC1)c1ccccc1,O,0,0,6.23,['6.23'],['pKa_prospector']
241,CC(=O)C1C(=O)c2c(Cl)c(Cl)c(Cl)c(Cl)c2C1=O,O,0,0,4.23,['4.23'],['pKa_prospector']
242,CC(=O)C1C(=O)c2cccc(Cl)c2C1=O,O,0,0,2.38,['2.38'],['pKa_prospector']
243,CC(=O)C1C(=O)c2cccc(I)c2C1=O,O,0,0,2.67,['2.67'],['pKa_prospector']
244,CC(=O)C1C(=O)c2ccccc2C1=O,O,0,0,2.94,['2.94'],['pKa_prospector']
245,CC(=O)CC(CC(=O)[O-])c1ccccc1,O,0,0,4.5,['4.50'],['pKa_prospector']
246,CC(=O)CC(c1ccc(Br)cc1)c1c([O-])c2ccccc2oc1=O,O,0,0,5,['5.00'],['pKa_prospector']
247,CC(=O)CC(c1ccc(Cl)cc1)c1c([O-])c2ccccc2oc1=O,O,0,0,4.9,['4.90'],['pKa_prospector']
248,CC(=O)CC(c1ccc([N+](=O)[O-])cc1)c1c([O-])c2ccccc2oc1=O,O,0,0,4.88,['4.88'],['pKa_prospector']
249,COc1ccc(C(CC(C)=O)c2c([O-])c3ccccc3oc2=O)cc1,O,0,0,5.1,['5.10'],['pKa_prospector']
250,CC(=O)CC(c1cccc(Cl)c1)c1c([O-])c2ccccc2oc1=O,O,0,0,5,['5.00'],['pKa_prospector']
251,CC(=O)CC(c1cccc([N+](=O)[O-])c1)c1c([O-])c2ccccc2oc1=O,O,0,0,4.9,['4.90'],['pKa_prospector']
252,COc1cccc(C(CC(C)=O)c2c([O-])c3ccccc3oc2=O)c1,O,0,0,5,['5.00'],['pKa_prospector']
253,CC(=O)CC(c1ccccc1)c1c([O-])c2ccccc2oc1=O,O,0,0,5.08,['5.08'],['pKa_prospector']
254,CC(=O)CC(c1ccccc1Cl)c1c([O-])c2ccccc2oc1=O,O,0,0,5.1,['5.10'],['pKa_prospector']
255,COc1ccccc1C(CC(C)=O)c1c([O-])c2ccccc2oc1=O,O,0,0,5.2,['5.20'],['pKa_prospector']
256,CC(=O)CC1=C([O-])C(=O)c2ccccc2C1=O,O,0,0,4.12,['4.12'],['pKa_prospector']
257,CC(=O)CC1CCCC[NH2+]1,O,0,0,9.45,['9.45'],['pKa_prospector']
258,CC(=O)CCCCC(=O)[O-],O,0,0,4.72,['4.72'],['pKa_prospector']
259,CC(=O)CCCC[NH+](C)C,O,0,0,9.62,['9.62'],['pKa_prospector']
260,CC(=O)CCC[NH+](C)C,O,0,0,9.07,['9.07'],['pKa_prospector']
261,CC(=O)CNc1ccccc1C(=O)[O-],O,0,0,4.4,['4.40'],['pKa_prospector']
262,CC(=O)Cn1cc[n+](C)c1C=NO,O,0,0,7.9,['7.90'],['pKa_prospector']
263,CC(=O)Cn1cc[n+](C(C)(C)C)c1C=NO,O,0,0,7.87,['7.87'],['pKa_prospector']
264,CC(=O)Cn1cc[n+](Cc2ccccc2)c1C=NO,O,0,0,7.8,['7.80'],['pKa_prospector']
265,COc1c(N(C)C)cc(Cc2cnc(N)nc2N)cc1N(C)C(C)=O,O,0,0,7.07,['7.07'],['pKa_prospector']
266,CC(=O)N(C)c1ccccn1,O,0,0,2.01,['2.01'],['pKa_prospector']
267,CC(=O)N(C)c1cccnc1,O,0,0,3.52,['3.52'],['pKa_prospector']
268,CC(=O)N(C)c1cc[nH+]cc1,O,0,0,4.62,['4.62'],['pKa_prospector']
269,CC(=O)N=c1ccccn1C,O,0,0,7.12,['7.12'],['pKa_prospector']
270,CC(=O)N=c1ccn(C)cc1,O,0,0,11.03,['11.03'],['pKa_prospector']
271,CC(=O)N=c1sc(S(N)(=O)=O)nn1C,O,0,0,7.3,['7.30'],['pKa_prospector']
272,CC(=O)N=c1sc(S(N)(=O)=O)nn1Cc1ccccc1,O,0,0,7.4,['7.40'],['pKa_prospector']
273,CC(=O)NC(Cc1cnc[nH]1)C(=O)[O-],O,0,0,7.08,['7.08'],['pKa_prospector']
274,COc1cc2c(c(OC)c1OC)-c1ccc(OC)c(=O)cc1C(NC(C)=O)CC2,O,0,0,1.75,['1.75'],['pKa_prospector']
275,CC(=O)NCCC(=O)[O-],O,0,0,4.44,['4.44'],['pKa_prospector']
276,CC(=O)NNC(=O)c1ccccn1,O,0,0,3.06,['3.06'],['pKa_prospector']
277,CC(=O)Nc1n[nH]c(NC(C)=O)n1,O,0,0,9.35,['9.35'],['pKa_prospector']
278,CC(=O)Nc1c(I)c(NC(C)=O)c(I)c(C(=O)[O-])c1I,O,0,0,3.4,['3.40'],['pKa_prospector']
279,CC(=O)Nc1ncnc2nccnc12,O,0,0,1.21,['1.21'],['pKa_prospector']
280,CC(=O)Nc1ccc(O)cc1,O,0,0,9.57,['9.57'],['pKa_prospector']
281,CC(=O)Nc1ccc(OC(=O)c2ccccc2O)cc1,O,0,0,9.1,['9.10'],['pKa_prospector']
282,CC(=O)Nc1ccc(OCC(O)C[NH2+]CC(O)COc2ccccc2)cc1,O,0,0,8.05,['8.05'],['pKa_prospector']
283,CC(=O)Nc1ccc(P(=O)([O-])[O-])cc1,O,0,0,7.1,['7.10'],['pKa_prospector']
284,CC(=O)Nc1ccc([S-])cc1,O,0,0,6.08,['6.08'],['pKa_prospector']
285,COc1cc([N-]S(=O)(=O)c2ccc(NC(C)=O)cc2)nc(OC)n1,O,0,0,6.01,['6.01'],['pKa_prospector']