,Solute SMILES,Solvent SMILES,Solute CAS,Solute IUPAC,pKa (avg),pKa (all),Source
1065,CCC1(CC)C(=O)NC(=O)N(c2ccc([N+](=O)[O-])cc2)C1=O,O,0,0,7.32,['7.32'],['pKa_prospector']
1066,CCC1(CC)C(=O)NC(=O)N(c2ccccc2)C1=O,O,0,0,7.62,['7.62'],['pKa_prospector']
1067,CCC1(c2ccccc2)NC(=O)NC1=O,O,0,0,8.51,['8.51'],['pKa_prospector']
1068,CCC1(c2ccccc2)C(=O)[N-]C(=O)N1S(=O)(=O)c1ccccc1,O,0,0,5.15,['5.15'],['pKa_prospector']
1069,CCC1(C(C)C)C(=O)NC(=O)NC1=O,O,0,0,8.01,['8.01'],['pKa_prospector']
1070,CCC1(C2=CCC3CCC2C3)C(=O)NC(=O)NC1=O,O,0,0,7.52,['7.52'],['pKa_prospector']
1071,CCC1(C2=CCCCC2)C(=O)NC(=O)NC1=O,O,0,0,7.77,['7.77'],['pKa_prospector']
1072,CCC1(C2=CCCCCC2)C(=O)NC(=O)NC1=O,O,0,0,7.45,['7.45'],['pKa_prospector']
1073,CCC1(CC)C(=O)NC(=O)NC1=O,O,0,0,7.89,['7.89'],['pKa_prospector']
1074,CCC1(CC(C)(C)C)C(=O)NC(=O)NC1=O,O,0,0,7.59,['7.59'],['pKa_prospector']
1075,CCC1(CC(C)C(C)C)C(=O)NC(=O)NC1=O,O,0,0,7.86,['7.86'],['pKa_prospector']
1076,CCC1(CCC(C)C)C(=O)NC(=O)NC1=O,O,0,0,7.91,['7.91'],['pKa_prospector']
1077,CCC1(c2ccccc2)C(=O)NC(=O)NC1=O,O,0,0,7.34,['7.34'],['pKa_prospector']
1078,CCC1(C)OC(=O)[N-]C1=O,O,0,0,6,['6.00'],['pKa_prospector']
1079,CCC1(CC)OC(=O)[N-]C1=O,O,0,0,5.7,['5.70'],['pKa_prospector']
1080,CCC1(CC)SC(=O)[N-]C1=O,O,0,0,6.42,['6.42'],['pKa_prospector']
1081,CCC1(c2ccccc2)C(=O)NC(=S)NC1=O,O,0,0,6.3,['6.30'],['pKa_prospector']
1082,CCC1(C)CC(=O)NC1=O,O,0,0,9.3,['9.30'],['pKa_prospector']
1083,CCC1(c2ccccc2)CCC(=O)NC1=O,O,0,0,4.52,['4.52'],['pKa_prospector']
1084,CCC1(c2ccccc2)OCC(C2CCCC[NH2+]2)O1,O,0,0,9.25,['9.25'],['pKa_prospector']
1085,CCC1(O)C(=O)OCc2c1cc1n(c2=O)Cc2cc3ccccc3nc2-1,O,0,0,10.83,['10.83'],['pKa_prospector']
1086,CCC12CC3CC(CC([NH3+])(C3)C1)C2,O,0,0,10.61,['10.61'],['pKa_prospector']
1087,CCC12CCC[NH+]3CCC4(c5cccc(OC)c5N(C(C)=O)C4CC1)C32,O,0,0,7.63,['7.63'],['pKa_prospector']
1088,CCC1=NNC(CC)=[NH+]N1,O,0,0,4.23,['4.23'],['pKa_prospector']
1089,CCC1OCSC1=NO,O,0,0,10.96,['10.96'],['pKa_prospector']
1090,CCC1SC(=[NH+]O)N(C)C1=O,O,0,0,11.81,['11.81'],['pKa_prospector']
1091,CC[c-]1c(=O)n(-c2ccccc2)n(-c2ccccc2)c1=O,O,0,0,4.6,['4.60'],['pKa_prospector']
1092,CCC1SC(=[NH+]O)NC1=O,O,0,0,11.87,['11.87'],['pKa_prospector']
1093,CCC1C(=O)NC(=O)N(C)C1=O,O,0,0,3.68,['3.68'],['pKa_prospector']
1094,CCC1OC(=O)C(C)C(OC2CC(C)(OC)C(O)C(C)O2)C(C)C(OC2OC(C)CC([NH+](C)C)C2O)C(C)(O)CC(C)C(=O)C(C)C(O)C1(C)O,O,0,0,8.8,['8.80'],['pKa_prospector']
1095,CCC1C2CC3C4N(C)c5ccccc5C4(CC[NH+]3C1O)C2O,O,0,0,8.17,['8.17'],['pKa_prospector']
1096,CCC1C2CC3C4N(C)c5ccccc5C45CC(C2C5O)[NH+]3C1O,O,0,0,8.25,['8.25'],['pKa_prospector']
1097,CCC1C2CC3C4N(C)c5ccccc5C45CC(C2C5OC(C)=O)[NH+]3C1O,O,0,0,6.25,['6.25'],['pKa_prospector']
1098,CCC1CCC(C(=O)[O-])CC1,O,0,0,6.21,['6.21'],['pKa_prospector']
1099,CCC1CCC(CC(=O)[O-])CC1,O,0,0,6.55,['6.55'],['pKa_prospector']
1100,CCC1CCCC(C(=O)[O-])C1,O,0,0,6.29,['6.29'],['pKa_prospector']
1101,CCC1CCCCC1C(=O)[O-],O,0,0,6.3,['6.30'],['pKa_prospector']
1102,CCC1C[NH+]2CCC1CC2C(O)c1ccnc2ccc(OC)cc12,O,0,0,8.87,['8.87'],['pKa_prospector']
1103,CCC1OCC(=NO)S1,O,0,0,11.06,['11.06'],['pKa_prospector']
1104,CCC=C(C)C1(CC)C(=O)NC(=O)NC1=O,O,0,0,8,['8.00'],['pKa_prospector']
1105,CC=CC(=CCC)C(=O)[O-],O,0,0,4.02,['4.02'],['pKa_prospector']
1106,CCC=CCCOCn1cc[n+](C)c1C=NO,O,0,0,7.99,['7.99'],['pKa_prospector']
1107,CCC=CCOCn1cc[n+](C)c1C=NO,O,0,0,8.03,['8.03'],['pKa_prospector']
1108,CCC=C(CCC)C(=O)[O-],O,0,0,4.36,['4.36'],['pKa_prospector']
1109,CCCC(CCC)=NNC(N)=[NH+]c1ccccc1,O,0,0,8.98,['8.98'],['pKa_prospector']
1110,CCCC(=NNC(N)=[NH+]c1ccccc1)c1ccccc1,O,0,0,8.42,['8.42'],['pKa_prospector']
1111,CCCC(=NO)C(=O)[O-],O,0,0,3.19,['3.19'],['pKa_prospector']
1112,CCCC(=O)C(CC[NH+]1CCOCC1)(c1ccccc1)c1ccccc1,O,0,0,7.17,['7.17'],['pKa_prospector']
1113,CCCC(=O)[c-]1c(=O)n(-c2ccccc2)n(-c2ccc(O)cc2)c1=O,O,0,0,2.3,['2.30'],['pKa_prospector']
1114,CCCC(=O)N=c1sc(S(N)(=O)=O)nn1C,O,0,0,7.4,['7.40'],['pKa_prospector']
1115,CCCC(=O)Nc1n[nH]c(NC(=O)CCC)n1,O,0,0,9.34,['9.34'],['pKa_prospector']
1116,CCCC(=O)Nc1ccc(OCC(O)C[NH2+]C(C)C)c(C(C)=O)c1,O,0,0,9.4,['9.40'],['pKa_prospector']
1117,CCCC(=O)OCn1cc(F)c(=O)[nH]c1=O,O,0,0,7.2,['7.20'],['pKa_prospector']
1118,CCCC(=O)OCn1cc[n+](C)c1C=NO,O,0,0,8.13,['8.13'],['pKa_prospector']
1119,CCCC(=O)OCn1cnc(CSCCNC(=NC#N)NC)c1C,O,0,0,4.8,['4.80'],['pKa_prospector']
1120,C#CC(CCC)OCn1cc[n+](C)c1C=NO,O,0,0,8.02,['8.02'],['pKa_prospector']
1121,CCCC(C)(CC(=O)[O-])CC(=O)[O-],O,0,0,3.63,['3.63'],['pKa_prospector']
1122,CCCC(C)C1(CC)C(=O)NC(=O)N(C)C1=O,O,0,0,8.17,['8.17'],['pKa_prospector']
1123,CCCC(C)C1(CC)C(=O)NC(=O)NC1=O,O,0,0,7.98,['7.98'],['pKa_prospector']
1124,C=C(Br)CC1(C(C)CCC)C(=O)NC(=O)NC1=O,O,0,0,7.7,['7.70'],['pKa_prospector']
1125,CCCC(C)C1(CC)C(=O)NC(=S)NC1=O,O,0,0,7.52,['7.52'],['pKa_prospector']
1126,C=CCC1(C(C)CCC)C(=O)NC(=S)NC1=O,O,0,0,7.48,['7.48'],['pKa_prospector']
1127,CCCC(C)OCn1cc[n+](C)c1C=NO,O,0,0,8.02,['8.02'],['pKa_prospector']
1128,CCCC(OCn1cc[n+](C)c1C=NO)C1CCCC1,O,0,0,7.97,['7.97'],['pKa_prospector']
1129,C=CC(CCC)OCn1cc[n+](C)c1C=NO,O,0,0,7.99,['7.99'],['pKa_prospector']
1130,C#CCC(CCC)OCn1cc[n+](C)c1C=NO,O,0,0,7.92,['7.92'],['pKa_prospector']
1131,CCCC(CC(C)=O)C(=O)[O-],O,0,0,4.58,['4.58'],['pKa_prospector']
1132,CCCC(CC)(CC(=O)[O-])CC(=O)[O-],O,0,0,3.51,['3.51'],['pKa_prospector']
1133,CCCC(CC)OCn1cc[n+](C)c1C=NO,O,0,0,7.97,['7.97'],['pKa_prospector']
1134,CCCC(CCC)C(=O)[O-],O,0,0,4.9,['4.90'],['pKa_prospector']
1135,CCCC([NH3+])Cc1ccccc1,O,0,0,10.03,['10.03'],['pKa_prospector']
1136,CCCC(C(=O)OCC[NH+](CC)CC)(c1ccccc1)c1ccccc1,O,0,0,8.8,['8.80'],['pKa_prospector']
1137,CCCC(OCn1cc[n+](C)c1C=NO)c1ccccc1,O,0,0,8.03,['8.03'],['pKa_prospector']
1138,CCCC1(CC)C(=O)NC(=O)N(C)C1=O,O,0,0,7.83,['7.83'],['pKa_prospector']
1139,CCCC1(CC)C(=O)NC(=O)NC1=O,O,0,0,7.9,['7.90'],['pKa_prospector']
1140,CCCC1(CCC)SC(=O)[N-]C1=O,O,0,0,6.37,['6.37'],['pKa_prospector']
1141,CCCC1OCSC1=NO,O,0,0,10.97,['10.97'],['pKa_prospector']
1142,CCC[c-]1c(=O)n(-c2ccccc2)n(-c2ccccc2)c1=O,O,0,0,4.4,['4.40'],['pKa_prospector']
1143,CCCC1SC(=[NH+]O)NC1=O,O,0,0,11.85,['11.85'],['pKa_prospector']
1144,CCCC1CC(C(=O)NC(C(C)Cl)C2OC(SC)C(O)C(O)C2O)[NH+](C)C1,O,0,0,7.61,['7.61'],['pKa_prospector']
1145,CCCC1CC(C(=O)NC(C(C)O)C2OC(SC)C(O)C(O)C2O)[NH+](C)C1,O,0,0,7.65,['7.65'],['pKa_prospector']
1146,CCCC1CC(C(=O)NC(C(C)Cl)C2OC(SC)C(O)C(O)C2O)[NH+](CC)C1,O,0,0,7.75,['7.75'],['pKa_prospector']
1147,CCCC1CC(C(=O)NC(C(C)O)C2OC(SC)C(O)C(O)C2O)[NH+](CC)C1,O,0,0,8.24,['8.24'],['pKa_prospector']
1148,CCCC1CC(C(=O)NC(C(C)Cl)C2OC(SCC)C(O)C(O)C2O)[NH+](CC)C1,O,0,0,7.88,['7.88'],['pKa_prospector']
1149,CCCC1CC(C(=O)NC(C(C)O)C2OC(SCC)C(O)C(O)C2O)[NH+](CC)C1,O,0,0,8.04,['8.04'],['pKa_prospector']
1150,CCCC1C[NH2+]C(C(=O)NC(C(C)Br)C2OC(SC)C(O)C(O)C2O)C1,O,0,0,8.57,['8.57'],['pKa_prospector']
1151,CCCC1C[NH2+]C(C(=O)NC(C(C)Cl)C2OC(SC)C(O)C(O)C2O)C1,O,0,0,8.25,['8.25'],['pKa_prospector']
1152,CCCC1C[NH2+]C(C(=O)NC(C(C)O)C2OC(SC)C(O)C(O)C2O)C1,O,0,0,8.42,['8.42'],['pKa_prospector']
1153,CCCC1OC(C)C(=NO)S1,O,0,0,11.01,['11.01'],['pKa_prospector']
1154,CCCC=CCOCn1cc[n+](C)c1C=NO,O,0,0,8,['8.00'],['pKa_prospector']
1155,CCCCC(=O)C(CC[NH+](C)C)(c1ccccc1)c1ccccc1,O,0,0,10.38,['10.38'],['pKa_prospector']
1156,CCCCC(=O)N=c1sc(S(N)(=O)=O)nn1C,O,0,0,7.4,['7.40'],['pKa_prospector']
1157,CCCCC(=O)c1ccc(-c2ccccc2C(=O)[O-])cc1,O,0,0,3.45,['3.45'],['pKa_prospector']
1158,CCCCC(CC)CN1C[NH+](CC(CC)CCCC)CC(C)(N)C1,O,0,0,8.3,['8.30'],['pKa_prospector']
1159,CCCCC(CC)CNc1ncnc2[nH]ncc12,O,0,0,4.56,['4.56'],['pKa_prospector']
1160,CCCCC(CC)CON(CC(C)O)CC(C)O,O,0,0,7.7,['7.70'],['pKa_prospector']
1161,CCCCC(CCCC)C(=O)[O-],O,0,0,5.05,['5.05'],['pKa_prospector']
1162,CCCCC([NH3+])Cc1ccccc1,O,0,0,10.04,['10.04'],['pKa_prospector']
1163,CCCCC1(CC)C(=O)NC(=O)NC1=O,O,0,0,7.98,['7.98'],['pKa_prospector']
1164,C=CCC1(CCCC)C(=O)NC(=O)NC1=O,O,0,0,7.98,['7.98'],['pKa_prospector']
1165,CCCCC1=CCC[NH+]1C,O,0,0,11.84,['11.84'],['pKa_prospector']
1166,CCCC[c-]1c(=O)n(-c2ccc(Cl)cc2)n(-c2ccc(Cl)cc2)c1=O,O,0,0,4,['4.00'],['pKa_prospector']
1167,CCCC[c-]1c(=O)n(-c2ccc(F)cc2)n(-c2ccc(F)cc2)c1=O,O,0,0,4.5,['4.50'],['pKa_prospector']
1168,CCCC[c-]1c(=O)n(-c2ccccc2)n(-c2ccc([N+](=O)[O-])cc2)c1=O,O,0,0,3.2,['3.20'],['pKa_prospector']
1169,CCCC[c-]1c(=O)n(-c2ccccc2)n(-c2ccc(O)cc2)c1=O,O,0,0,4.68,['4.68'],['pKa_prospector']
1170,CCCC[c-]1c(=O)n(-c2ccc(S(C)(=O)=O)cc2)n(-c2ccc(S(C)(=O)=O)cc2)c1=O,O,0,0,2.6,['2.60'],['pKa_prospector']
1171,CCCC[c-]1c(=O)n(-c2ccccc2)n(-c2ccccc2)c1=O,O,0,0,4.64,['4.64'],['pKa_prospector']
1172,CCCCC1C(=O)NC(=O)N(C)C1=O,O,0,0,3.83,['3.83'],['pKa_prospector']
1173,CCCCC1C(=O)NC(=O)NC1=O,O,0,0,3.42,['3.42'],['pKa_prospector']
1174,CCCCC1CC(C(=O)NC(C(C)Cl)C2OC(SC)C(O)C(O)C2O)[NH+](CC)C1,O,0,0,7.7,['7.70'],['pKa_prospector']
1175,CCCCC1CC(C(=O)NC(C(C)O)C2OC(SC)C(O)C(O)C2O)[NH+](CC)C1,O,0,0,7.97,['7.97'],['pKa_prospector']
1176,CCCCC1CCC[NH+]1C,O,0,0,10.2,['10.20'],['pKa_prospector']
1177,CCCCCC(=[NH2+])Nc1ccc(-c2ccccc2)cc1,O,0,0,9.66,['9.66'],['pKa_prospector']
1178,CCCCCC(CCC)=NNC(N)=[NH2+],O,0,0,9.85,['9.85'],['pKa_prospector']
1179,CCCCCC(O)C(C)(C)[NH3+],O,0,0,9.85,['9.85'],['pKa_prospector']
1180,CCCCCC(C)(C)[NH3+],O,0,0,10.56,['10.56'],['pKa_prospector']
1181,CCCCCC(C)[NH2+]C,O,0,0,10.82,['10.82'],['pKa_prospector']
1182,CCCCCC(O)C=CC1C(O)CC(=O)C1CC=CCCCC(=O)[O-],O,0,0,4.94,['4.94'],['pKa_prospector']
1183,CCCCCC(O)C=CC1C(O)CC(O)C1CC=CCCCC(=O)[O-],O,0,0,4.9,['4.90'],['pKa_prospector']
1184,CCCCCC1(CC)C(=O)NC(=O)NC1=O,O,0,0,8,['8.00'],['pKa_prospector']
1185,CCCCCC1C[NH2+]C(C(=O)NC(C(C)Cl)C2OC(SC)C(O)C(O)C2O)C1,O,0,0,8.29,['8.29'],['pKa_prospector']
1186,CCCCCC=C[NH+](CC)CC,O,0,0,10.83,['10.83'],['pKa_prospector']
1187,CCCCCCC(C)=NNC(N)=[NH2+],O,0,0,10,['10.00'],['pKa_prospector']
1188,CCCCCCC(C)[NH3+],O,0,0,10.49,['10.49'],['pKa_prospector']
1189,CCCCCCC1(CC)C(=O)NC(=O)NC1=O,O,0,0,8,['8.00'],['pKa_prospector']
1190,CCCCCC[c-]1c(=O)n(-c2ccccc2)n(-c2ccc(O)cc2)c1=O,O,0,0,5.1,['5.10'],['pKa_prospector']
1191,CCCCCCCC(=[NH2+])Nc1ccc(-c2ccccc2)cc1,O,0,0,9.54,['9.54'],['pKa_prospector']
1192,CCCCCCCC(=O)[O-],O,0,0,4.88,['4.88'],['pKa_prospector']
1193,CCCCCCCC1(CC)C(=O)NC(=O)NC1=O,O,0,0,8,['8.00'],['pKa_prospector']
1194,CCCCCCCCC(=O)[O-],O,0,0,4.95,['4.95'],['pKa_prospector']
1195,CCCCCCCCC1(CC)C(=O)NC(=O)NC1=O,O,0,0,8,['8.00'],['pKa_prospector']
1196,CCCCCCCCCC1(CC)C(=O)NC(=O)NC1=O,O,0,0,8,['8.00'],['pKa_prospector']
1197,CCCCCCCCCCCC(=O)[O-],O,0,0,4.92,['4.92'],['pKa_prospector']
1198,CCCCCCCCCCCCCCCC(=O)OCC1OC(n2ccc(N)nc2=O)C(O)C1O,O,0,0,4.21,['4.21'],['pKa_prospector']
1199,CCCCCCCCCCCCCCCC[NH+](CC(C)O)CC(C)O,O,0,0,4.8,['4.80'],['pKa_prospector']
1200,CCCCCCCCCCCCCCC[NH3+],O,0,0,10.61,['10.61'],['pKa_prospector']
1201,CCCCCCCCCCCCCC[NH3+],O,0,0,10.62,['10.62'],['pKa_prospector']
1202,CCCCCCCCCCCCCC[NH+](CC(C)O)CC(C)O,O,0,0,5.6,['5.60'],['pKa_prospector']
1203,CCCCCCCCCCCCC[NH3+],O,0,0,10.63,['10.63'],['pKa_prospector']
1204,CCCCCCCCCCCC[NH3+],O,0,0,10.63,['10.63'],['pKa_prospector']
1205,CCCCCCCCCCCC[NH+](CC(C)O)CC(C)O,O,0,0,6.2,['6.20'],['pKa_prospector']
1206,CCCCCCCCCCCCNC(N)=[NH2+],O,0,0,13.2,['13.20'],['pKa_prospector']
1207,CCCCCCCCCCCCP(=O)([O-])[O-],O,0,0,8.25,['8.25'],['pKa_prospector']
1208,CCCCCCCCCCC[NH3+],O,0,0,10.63,['10.63'],['pKa_prospector']
1209,CCCCCCCCCC[NH3+],O,0,0,10.64,['10.64'],['pKa_prospector']
1210,CCCCCCCCCC[NH+](CC(C)O)CC(C)O,O,0,0,7.6,['7.60'],['pKa_prospector']
1211,CCCCCCCCC[NH3+],O,0,0,10.64,['10.64'],['pKa_prospector']
1212,CCCCCCCC[NH3+],O,0,0,10.61,['10.61'],['pKa_prospector']
1213,CCCCCCCC[NH+](CC(C)O)CC(C)O,O,0,0,8.3,['8.30'],['pKa_prospector']
1214,CCCCCCCC[NH2+]CCCCCCCC,O,0,0,11.01,['11.01'],['pKa_prospector']
1215,CCCCCCCCOC1(c2ccccc2)C[NH+](C)CCO1,O,0,0,6.99,['6.99'],['pKa_prospector']
1216,CCCCCCCCOCn1cc[n+](C)c1C=NO,O,0,0,8.01,['8.01'],['pKa_prospector']
1217,CCCCCCCCOc1cc(N)ccc1C(=O)[O-],O,0,0,5.4,['5.40'],['pKa_prospector']
1218,CCCCCCCCOc1ccc(C(=O)OCC[NH+](CC)CC)cc1,O,0,0,8.95,['8.95'],['pKa_prospector']
1219,CCCCCCCCc1ccc2[nH]c(C(F)(F)F)nc2c1,O,0,0,9.85,['9.85'],['pKa_prospector']
1220,CCCCCCC[NH+](CC)CC,O,0,0,9.94,['9.94'],['pKa_prospector']
1221,CCCCCCCNc1ncccn1,O,0,0,4.07,['4.07'],['pKa_prospector']
1222,CCCCCCCOc1cc(N)ccc1C(=O)[O-],O,0,0,5.3,['5.30'],['pKa_prospector']
1223,CCCCCCCOc1ccc(C(=O)OCC[NH+](CC)CC)cc1,O,0,0,8.95,['8.95'],['pKa_prospector']
1224,CCCCCCCOc1cccc(NC(=O)OC2CCCCC2n2ccnc2)c1,O,0,0,8.87,['8.87'],['pKa_prospector']
1225,CCCCCCCOc1ccccc1NC(=O)OC(C)C[NH+](CC)CC,O,0,0,8.8,['8.80'],['pKa_prospector']
1226,CCCCCCCc1nnn[n-]1,O,0,0,5.31,['5.31'],['pKa_prospector']
1227,CCCCCCCc1ccncc1,O,0,0,6.33,['6.33'],['pKa_prospector']
1228,CCCCCCCn1cccnc1=N,O,0,0,10.84,['10.84'],['pKa_prospector']
1229,CCCCCC[NH+](CC(C)O)CC(C)O,O,0,0,8.5,['8.50'],['pKa_prospector']
1230,CCCCCCNC(=O)[N-]S(=O)(=O)c1ccccc1,O,0,0,4.94,['4.94'],['pKa_prospector']
1231,CCCCCC[NH2+]CCCCCC,O,0,0,11.01,['11.01'],['pKa_prospector']
1232,CCCCCCNc1ncnc2c1cnn2C,O,0,0,4.2,['4.20'],['pKa_prospector']
1233,CCCCCCNc1ccccc1,O,0,0,5.42,['5.42'],['pKa_prospector']
1234,CCCCCCOC(=O)Oc1cccc(C2(C(=O)CC)CC[NH+](C)CC2)c1,O,0,0,7,['7.00'],['pKa_prospector']
1235,CCCCCCOC(=O)n1cc(F)c(=O)[nH]c1=O,O,0,0,6.8,['6.80'],['pKa_prospector']
1236,CCCCCCOC(=O)n1cnc(C)c1CSCCNC(=NC#N)NC,O,0,0,3.4,['3.40'],['pKa_prospector']
1237,CCCCCCOCn1cc[n+](C)c1C=NO,O,0,0,8.03,['8.03'],['pKa_prospector']
1238,CCCCCCOCn1cc[n+](Cc2ccccc2)c1C=NO,O,0,0,7.99,['7.99'],['pKa_prospector']
1239,CCCCCCOc1cc(N)ccc1C(=O)[O-],O,0,0,5.4,['5.40'],['pKa_prospector']
1240,CCCCCCOc1ccc(C(=O)OCC[NH+](CC)CC)cc1,O,0,0,8.95,['8.95'],['pKa_prospector']
1241,CCCCCC[n+]1ccn(CC(C)=O)c1C=NO,O,0,0,7.94,['7.94'],['pKa_prospector']
1242,CCCCCC[n+]1ccn(COC)c1C=NO,O,0,0,8.06,['8.06'],['pKa_prospector']
1243,CCCCCC[n+]1ccn(COC(C)C(C)(C)C)c1C=NO,O,0,0,8.04,['8.04'],['pKa_prospector']
1244,CCCCCC[n+]1ccn(COCC(C)(C)C)c1C=NO,O,0,0,8.06,['8.06'],['pKa_prospector']
1245,CCCCCCOCn1cc[n+](CCCCCC)c1C=NO,O,0,0,8,['8.00'],['pKa_prospector']
1246,CCCCCC[n+]1ccn(COCc2ccccc2)c1C=NO,O,0,0,8.03,['8.03'],['pKa_prospector']
1247,CCCCCCc1ccc(C(=O)OCC[NH+](CC)CC)cc1,O,0,0,8.97,['8.97'],['pKa_prospector']
1248,CCCCCCc1ccc(S(=O)(=O)[N-]c2cccc3cccnc23)cc1,O,0,0,1.48,['1.48'],['pKa_prospector']
1249,CCCCCCc1ccc(O)cc1O,O,0,0,9.54,['9.54'],['pKa_prospector']
1250,CCCCCCc1ccccn1,O,0,0,5.95,['5.95'],['pKa_prospector']
1251,CCCCCCc1ccncc1,O,0,0,6.35,['6.35'],['pKa_prospector']
1252,CCCCCCn1cc[n+](C)c1C=NO,O,0,0,8.2,['8.20'],['pKa_prospector']
1253,CCCCC[NH+](CC(C)O)CC(C)O,O,0,0,9,['9.00'],['pKa_prospector']
1254,CCCCCN(C1=[NH+]CCN1)c1c(Br)cccc1Br,O,0,0,11,['11.00'],['pKa_prospector']
1255,CCCCC[NH+]1CC(C)CC(O)C1C(C)c1ccc2c(c1C)CC1C2CC=C2CC(O)CCC21C,O,0,0,7.28,['7.28'],['pKa_prospector']
1256,CCCCCNC(=O)c1ccc(S(N)(=O)=O)cc1,O,0,0,10.2,['10.20'],['pKa_prospector']
1257,CCCCC[NH2+]CCCC,O,0,0,10.92,['10.92'],['pKa_prospector']
1258,CCCCC[NH2+]CCCCC,O,0,0,11.16,['11.16'],['pKa_prospector']
1259,CCCCCNc1ncccn1,O,0,0,4.03,['4.03'],['pKa_prospector']
1260,CCCCCOC(=O)c1ccc(S(N)(=O)=O)cc1,O,0,0,10.1,['10.10'],['pKa_prospector']
1261,CCCCCOC1(c2ccccc2)C[NH+](C)CCO1,O,0,0,7.11,['7.11'],['pKa_prospector']
1262,CCCCCOc1cc(C(=O)NCC[NH+](CC)CC)c2ccccc2n1,O,0,0,8.83,['8.83'],['pKa_prospector']
1263,CCCCCOc1cc(N)ccc1C(=O)[O-],O,0,0,5.1,['5.10'],['pKa_prospector']
1264,CCCCCOc1ccc(C(=O)[O-])cc1,O,0,0,4.55,['4.55'],['pKa_prospector']
1265,CCCCCOc1ccc(C(=O)OCC[NH+](CC)CC)cc1,O,0,0,8.95,['8.95'],['pKa_prospector']
1266,CCCCCOc1ccc(NC(=O)C[NH+](CC)CC)cc1,O,0,0,7.8,['7.80'],['pKa_prospector']
1267,CCCCCOc1cccc(NC(=O)C[NH+](CC)CC)c1,O,0,0,7.78,['7.78'],['pKa_prospector']
1268,CCCCCOc1cccc(NC(=O)OC2CCCCC2n2ccnc2)c1,O,0,0,8.87,['8.87'],['pKa_prospector']
1269,CCCCCc1ccc(C(=O)OCC[NH+](CC)CC)cc1,O,0,0,8.97,['8.97'],['pKa_prospector']
1270,CCCCCc1ccccn1,O,0,0,6,['6.00'],['pKa_prospector']
1271,CCCCCc1cccnn1,O,0,0,3.7,['3.70'],['pKa_prospector']
1272,CCCC[NH+](C)C1CCc2ccccc2C1,O,0,0,9.71,['9.71'],['pKa_prospector']
1273,CCCCN(C)CCS(=O)(=O)c1cc(OC)c(OC)c(OC)c1,O,0,0,7.13,['7.13'],['pKa_prospector']
1274,CCCC[NH+](CC(C)O)CC(C)O,O,0,0,9.3,['9.30'],['pKa_prospector']
1275,CCCCN(CCCC)C(=O)CCC(=O)[O-],O,0,0,5.58,['5.58'],['pKa_prospector']
1276,CCCC[NH+](CCCC)CC(=O)NC1COc2ccc(C)cc21,O,0,0,7.3,['7.30'],['pKa_prospector']
1277,CCCC[NH+](CCCC)CC(=O)NC1COc2ccc(Cl)cc21,O,0,0,7.1,['7.10'],['pKa_prospector']
1278,CCCC[NH+](CCCC)CC(=O)NC1COc2cc(OC)ccc21,O,0,0,7.6,['7.60'],['pKa_prospector']
1279,CCCC[NH+](CCCC)CC(=O)NC1COc2ccccc21,O,0,0,7.5,['7.50'],['pKa_prospector']
1280,CCCC[NH+](CCCC)CCCC,O,0,0,9.93,['9.93'],['pKa_prospector']
1281,CCCC[NH+](CCCC)CCCOC(=O)c1ccc(N)cc1,O,0,0,8.96,['8.96'],['pKa_prospector']
1282,CCCC[NH+](CCCC)CCCn1c2nc(=O)[nH]c(=O)c-2nc2cc(Cl)c(Cl)cc21,O,0,0,8,['8.00'],['pKa_prospector']
1283,CCCC[NH+](CCCC)CCOC(=O)c1ccc(N)cc1,O,0,0,9.2,['9.20'],['pKa_prospector']
1284,CCCCN(CCCC)CCS(=O)(=O)c1cc(OC)c(OC)c(OC)c1,O,0,0,7.56,['7.56'],['pKa_prospector']
1285,CCCCN(CCCC)c1ccccc1,O,0,0,6.33,['6.33'],['pKa_prospector']
1286,CCCC[NH+](CCCl)CCCl,O,0,0,6.61,['6.61'],['pKa_prospector']
1287,CCCCN(C1=[NH+]CCN1)c1c(Br)cccc1Br,O,0,0,10.97,['10.97'],['pKa_prospector']
1288,CCCCN1C(=O)CSC(=NO)C1C,O,0,0,10.8,['10.80'],['pKa_prospector']
1289,CCCC[NH+]1CC(C)CC(O)C1C(C)c1ccc2c(c1C)CC1C2CC=C2CC(O)CCC21C,O,0,0,7.2,['7.20'],['pKa_prospector']
1290,CCCC[NH+]1CCC=C1C,O,0,0,11.9,['11.90'],['pKa_prospector']
1291,CCCC[NH+]1CCCC1C,O,0,0,10.52,['10.52'],['pKa_prospector']
1292,CCCC[NH+]1CCCCC1,O,0,0,10.43,['10.43'],['pKa_prospector']
1293,CCCC[NH+]1CCCCC1C,O,0,0,10.7,['10.70'],['pKa_prospector']
1294,CCCC[NH+]1CCCCC1C(=O)Nc1c(C)cccc1C,O,0,0,7.82,['7.82'],['pKa_prospector']
1295,CCCCN1CC[NH+](CCCC)C(NC(=O)c2ccccc2C)C1,O,0,0,6.81,['6.81'],['pKa_prospector']
1296,CCCCNC(=[NH2+])NC(N)=[NH2+],O,0,0,11.3,['11.30'],['pKa_prospector']
1297,CCCCNC(=[NH2+])NC(=[NH2+])Nc1ccc(Cl)cc1,O,0,0,10.83,['10.83'],['pKa_prospector']
1298,CCCCNC(=[NH2+])c1ccc(-c2ccccc2)cc1,O,0,0,11.13,['11.13'],['pKa_prospector']
1299,CCCCNC(=O)CSC(=NO)C(C)(C)C,O,0,0,10.76,['10.76'],['pKa_prospector']
1300,CCCCNC(=O)[N-]S(=O)(=O)c1ccc(C)cc1,O,0,0,5.53,['5.53'],['pKa_prospector']
1301,CCCCNC(=O)[N-]S(=O)(=O)c1ccc(Cl)cc1,O,0,0,4.79,['4.79'],['pKa_prospector']
1302,CCCCNC(=O)[N-]S(=O)(=O)c1ccc(N)cc1,O,0,0,6.13,['6.13'],['pKa_prospector']
1303,CCCCNC(=O)[N-]S(=O)(=O)c1ccc([N+](=O)[O-])cc1,O,0,0,3.95,['3.95'],['pKa_prospector']
1304,CCCCNC(=O)[N-]S(=O)(=O)c1ccccc1,O,0,0,5.02,['5.02'],['pKa_prospector']
1305,CCCCNC(=O)c1cc(Br)cc(C)c1O,O,0,0,7.57,['7.57'],['pKa_prospector']
1306,CCCCNC(=O)c1ccc(S(N)(=O)=O)cc1,O,0,0,10.1,['10.10'],['pKa_prospector']
1307,CCCCNC(=O)n1cc(F)c(=O)[nH]c1=O,O,0,0,6.8,['6.80'],['pKa_prospector']
1308,CCCC[NH2+]CCCC,O,0,0,11.12,['11.12'],['pKa_prospector']
1309,CCCCNc1nc(=O)n(C2CC(O)C(CO)O2)cc1F,O,0,0,2.21,['2.21'],['pKa_prospector']
1310,CCCCNc1ncnc2c1cnn2C,O,0,0,4.18,['4.18'],['pKa_prospector']
1311,CCCCNc1cc[nH]c(=O)n1,O,0,0,4.67,['4.67'],['pKa_prospector']
1312,CCCCNc1ccc(C(=O)OCC[NH+](C)C)cc1,O,0,0,8.36,['8.36'],['pKa_prospector']
1313,CCCCNc1ccc(C(=O)OCC[NH+](CC)CC)cc1,O,0,0,9.03,['9.03'],['pKa_prospector']
1314,CCCCNc1cccc(C(=O)OCC[NH+](CC)CC)c1,O,0,0,8.84,['8.84'],['pKa_prospector']
1315,CCCCNc1ccccc1,O,0,0,5.04,['5.04'],['pKa_prospector']
1316,CCCCNc1ccccc1C(=O)[O-],O,0,0,5.6,['5.60'],['pKa_prospector']
1317,CCCCNc1ccccc1C(=O)OCC[NH+](CC)CC,O,0,0,8.89,['8.89'],['pKa_prospector']
1318,CCCCNc1ccccc1OC,O,0,0,4.2,['4.20'],['pKa_prospector']
1319,CCCCNc1ccnc(O)n1,O,0,0,4.67,['4.67'],['pKa_prospector']
1320,CCCCNc1ncccn1,O,0,0,4.14,['4.14'],['pKa_prospector']
1321,CCCCOC(=O)Oc1cccc(C2(C(=O)CC)CC[NH+](C)CC2)c1,O,0,0,7.1,['7.10'],['pKa_prospector']
1322,CCCCOC(=O)c1ccc(O)cc1,O,0,0,8.47,['8.47'],['pKa_prospector']
1323,CCCCOC(=O)c1ccc(S(N)(=O)=O)cc1,O,0,0,9.7,['9.70'],['pKa_prospector']
1324,CCCCOC(=O)n1cc(F)c(=O)[nH]c1=O,O,0,0,6.8,['6.80'],['pKa_prospector']
1325,CCCCOC(=O)n1cnc(CSCCNC(=NC#N)NC)c1C,O,0,0,3.3,['3.30'],['pKa_prospector']
1326,CCCCOC1(c2ccccc2)C[NH+](C)CCO1,O,0,0,7.09,['7.09'],['pKa_prospector']
1327,CCCCOCC(=O)[O-],O,0,0,3.66,['3.66'],['pKa_prospector']
1328,CCCCOCn1cc[n+](C)c1C=NO,O,0,0,8.04,['8.04'],['pKa_prospector']