,Solute SMILES,Solvent SMILES,Solute CAS,Solute IUPAC,pKa (avg),pKa (all),Source
4279,S=C(N=Nc1ccccc1)NNc1ccccc1,O,0,0,4.65,['4.65'],['pKa_prospector']
4280,O=P([O-])([O-])c1ccc(NNc2ccccc2)cc1,O,0,0,7.54,['7.54'],['pKa_prospector']
4281,O=S(=O)([N-]c1ccccc1)C(F)(F)F,O,0,0,4.45,['4.45'],['pKa_prospector']
4282,O=S(=O)(Nc1ccccc1)[C-](F)F,O,0,0,6.19,['6.19'],['pKa_prospector']
4283,O=S(=O)(CF)Nc1ccccc1,O,0,0,7.57,['7.57'],['pKa_prospector']
4284,c1ccc(Nc2ncnc3[nH]ncc23)cc1,O,0,0,3.88,['3.88'],['pKa_prospector']
4285,O=[N+]([O-])c1ccc(Nc2ccccc2)cc1,O,0,0,-2.5,['-2.50'],['pKa_prospector']
4286,c1ccc(N=Nc2ccc(Nc3ccccc3)cc2)cc1,O,0,0,1.52,['1.52'],['pKa_prospector']
4287,c1ccc(Nc2ccccc2)cc1,O,0,0,0.79,['0.79'],['pKa_prospector']
4288,O=C([O-])c1ccccc1Nc1ccccc1,O,0,0,4.71,['4.71'],['pKa_prospector']
4289,O=C([O-])Cc1ccccc1Nc1ccccc1,O,0,0,4.1,['4.10'],['pKa_prospector']
4290,Nc1nc(N)nc(Nc2ccccc2)n1,O,0,0,4.65,['4.65'],['pKa_prospector']
4291,NC(=O)Oc1ccccc1,O,0,0,-1.85,['-1.85'],['pKa_prospector']
4292,O=C(OCn1c(=O)[nH]cc(F)c1=O)Oc1ccccc1,O,0,0,7.9,['7.90'],['pKa_prospector']
4293,O=C(Oc1ccccc1)n1c(=O)[nH]cc(F)c1=O,O,0,0,6.6,['6.60'],['pKa_prospector']
4294,O=C([O-])COc1ccccc1,O,0,0,3.04,['3.04'],['pKa_prospector']
4295,O=[N+]([O-])c1ccc(OCC(O)C[NH2+]CC(O)COc2ccccc2)cc1,O,0,0,8.15,['8.15'],['pKa_prospector']
4296,OC(C[NH2+]CC(O)COc1cccc2ccccc12)COc1ccccc1,O,0,0,7.85,['7.85'],['pKa_prospector']
4297,OC(C[NH2+]CC(O)COc1ccccc1)COc1ccccc1,O,0,0,8.1,['8.10'],['pKa_prospector']
4298,O=C([O-])CCOc1ccccc1,O,0,0,4.27,['4.27'],['pKa_prospector']
4299,O=c1[nH]c2ccccc2n1C1CC[NH+](CCOc2ccccc2)CC1,O,0,0,7.78,['7.78'],['pKa_prospector']
4300,[NH3+]CCOP(=O)(Oc1ccccc1)Oc1ccccc1,O,0,0,8.22,['8.22'],['pKa_prospector']
4301,O=C([O-])c1ccc(Oc2ccccc2)cc1,O,0,0,5.01,['5.01'],['pKa_prospector']
4302,NC(=[NH2+])NN=Cc1ccc(Oc2ccccc2)cc1,O,0,0,8.7,['8.70'],['pKa_prospector']
4303,O=C([O-])c1cccc(Oc2ccccc2)c1,O,0,0,4.63,['4.63'],['pKa_prospector']
4304,O=C([O-])c1ccccc1Oc1ccccc1,O,0,0,3.53,['3.53'],['pKa_prospector']
4305,c1ccc(Oc2ccnc3c2ccc2c(Oc4ccccc4)ccnc23)cc1,O,0,0,5.32,['5.32'],['pKa_prospector']
4306,O=S(=O)([N-]c1ncc(Oc2ccccc2)cn1)c1ccccc1,O,0,0,5.33,['5.33'],['pKa_prospector']
4307,[O-]P(O)c1ccccc1,O,0,0,2.1,['2.10'],['pKa_prospector']
4308,O=C([O-])CS(=O)(=O)c1ccccc1,O,0,0,2.44,['2.44'],['pKa_prospector']
4309,O=S(=O)(CC=NO)c1ccccc1,O,0,0,10.46,['10.46'],['pKa_prospector']
4310,NS(=O)(=O)c1ccccc1,O,0,0,10.1,['10.10'],['pKa_prospector']
4311,O=C([O-])c1cccc(/[N+]([O-])=N\S(=O)(=O)c2ccccc2)c1,O,0,0,4.6,['4.60'],['pKa_prospector']
4312,NC(=O)[N-]S(=O)(=O)c1ccccc1,O,0,0,4.88,['4.88'],['pKa_prospector']
4313,O=C([N-]S(=O)(=O)c1ccccc1)NC1CCCCC1,O,0,0,5,['5.00'],['pKa_prospector']
4314,NS(=O)(=O)c1nnc([N-]S(=O)(=O)c2ccccc2)s1,O,0,0,3.2,['3.20'],['pKa_prospector']
4315,O=S(=O)([O-])c1ccccc1,O,0,0,0.7,['0.70'],['pKa_prospector']
4316,O=C([O-])CS(=O)c1ccccc1,O,0,0,2.65,['2.65'],['pKa_prospector']
4317,O=S([O-])c1ccccc1,O,0,0,1.84,['1.84'],['pKa_prospector']
4318,O=C([O-])CSc1ccccc1,O,0,0,3.56,['3.56'],['pKa_prospector']
4319,O=C([O-])c1cccc(CSc2ccccc2)c1O,O,0,0,3,['3.00'],['pKa_prospector']
4320,Nc1ncnc2nc(-c3ccccc3)[nH]c12,O,0,0,9.3,['9.30'],['pKa_prospector']
4321,c1ccc(-c2nnn[n-]2)cc1,O,0,0,4.59,['4.59'],['pKa_prospector']
4322,Nc1nc(N)c2nc(-c3ccccc3)c(N)nc2n1,O,0,0,6.2,['6.20'],['pKa_prospector']
4323,c1ccc(-c2nncc3ccccc23)cc1,O,0,0,3.51,['3.51'],['pKa_prospector']
4324,O=c1cc(-c2ccccc2)nc2n1CCCC2,O,0,0,2.69,['2.69'],['pKa_prospector']
4325,O=c1cc(-c2ccccc2)nc2ccccn12,O,0,0,2.71,['2.71'],['pKa_prospector']
4326,N#Cc1cc(-c2ccccc2)nnc1NCC[NH+]1CCOCC1,O,0,0,6.5,['6.50'],['pKa_prospector']
4327,O=[N+]([O-])c1cc(-c2ccccc2)nnc1NCC[NH+]1CCOCC1,O,0,0,6.56,['6.56'],['pKa_prospector']
4328,Nc1nc(-c2ccccc2)cc(-c2ccccc2)n1,O,0,0,3.74,['3.74'],['pKa_prospector']
4329,c1ccc(-c2cnc3c(ccc4cccnc43)c2)cc1,O,0,0,4.8,['4.80'],['pKa_prospector']
4330,c1ccc(-c2cc3cccnc3c3ncccc23)cc1,O,0,0,4.7,['4.70'],['pKa_prospector']
4331,O=[N+]([O-])c1cc(-c2ccccc2)ccc1[O-],O,0,0,6.69,['6.69'],['pKa_prospector']
4332,NC(=[NH2+])c1ccc(-c2ccccc2)cc1,O,0,0,11.49,['11.49'],['pKa_prospector']
4333,[NH2+]=C(NC1CCCCC1)c1ccc(-c2ccccc2)cc1,O,0,0,11.16,['11.16'],['pKa_prospector']
4334,O=C([O-])CCC(=O)c1ccc(-c2ccccc2)cc1,O,0,0,4.5,['4.50'],['pKa_prospector']
4335,c1ccc(-c2ccc(C3=[NH+]CCN3)cc2)cc1,O,0,0,9.69,['9.69'],['pKa_prospector']
4336,NC(=[NH2+])NN=Cc1ccc(-c2ccccc2)cc1,O,0,0,8.75,['8.75'],['pKa_prospector']
4337,Nc1ccc(-c2ccccc2)cc1,O,0,0,4.08,['4.08'],['pKa_prospector']
4338,[NH2+]=C(Nc1ccc(-c2ccccc2)cc1)C1=CCCC1,O,0,0,9.06,['9.06'],['pKa_prospector']
4339,[NH2+]=C(Nc1ccc(-c2ccccc2)cc1)C1=CCCCC1,O,0,0,9.25,['9.25'],['pKa_prospector']
4340,[NH2+]=C(Nc1ccc(-c2ccccc2)cc1)C1CCCCC1,O,0,0,9.6,['9.60'],['pKa_prospector']
4341,Oc1ccc(-c2ccccc2)cc1,O,0,0,9.53,['9.53'],['pKa_prospector']
4342,c1ccc(-c2ccc3ccc4cccnc4c3n2)cc1,O,0,0,4.88,['4.88'],['pKa_prospector']
4343,Nc1cccc(-c2ccccc2)c1,O,0,0,4.04,['4.04'],['pKa_prospector']
4344,O=C([O-])c1ccccc1Nc1cccc(-c2ccccc2)c1,O,0,0,7,['7.00'],['pKa_prospector']
4345,Oc1cccc(-c2ccccc2)c1,O,0,0,9.64,['9.64'],['pKa_prospector']
4346,O=C([O-])c1ccccc1-c1ccccc1,O,0,0,4.25,['4.25'],['pKa_prospector']
4347,Nc1ccccc1-c1ccccc1,O,0,0,3.42,['3.42'],['pKa_prospector']
4348,Oc1ccccc1-c1ccccc1,O,0,0,10.68,['10.68'],['pKa_prospector']
4349,O=P([O-])([O-])c1ccccc1-c1ccccc1,O,0,0,8.13,['8.13'],['pKa_prospector']
4350,c1ccc(-c2ccnc3c2ccc2cccnc23)cc1,O,0,0,4.88,['4.88'],['pKa_prospector']
4351,c1ccc(-c2cnc(-c3ccccn3)o2)cc1,O,0,0,2.31,['2.31'],['pKa_prospector']
4352,c1ccc(-c2cnc(-c3cccnc3)o2)cc1,O,0,0,3.27,['3.27'],['pKa_prospector']
4353,c1ccc(-c2cnc(-c3ccncc3)o2)cc1,O,0,0,4.18,['4.18'],['pKa_prospector']
4354,O=c1c(-c2ccccc2)cnc2n1CCCC2,O,0,0,3.27,['3.27'],['pKa_prospector']
4355,Nc1ccc(S(=O)(=O)[N-]c2ncncc2-c2ccccc2)cc1,O,0,0,6.33,['6.33'],['pKa_prospector']
4356,O=C([O-])Cc1sc(-c2ccccc2)nc1-c1ccc(Cl)cc1,O,0,0,3.6,['3.60'],['pKa_prospector']
4357,ON=Cc1noc(-c2ccccc2)n1,O,0,0,8.12,['8.12'],['pKa_prospector']
4358,Nc1nsc(-c2ccccc2)n1,O,0,0,0.1,['0.10'],['pKa_prospector']
4359,ON=Cc1nc(-c2ccccc2)no1,O,0,0,7.94,['7.94'],['pKa_prospector']
4360,Nc1nc(-c2ccccc2)ns1,O,0,0,1.4,['1.40'],['pKa_prospector']
4361,ON=Cc1nnc(-c2ccccc2)o1,O,0,0,8.41,['8.41'],['pKa_prospector']
4362,Nc1nnc(-c2ccccc2)s1,O,0,0,2.9,['2.90'],['pKa_prospector']
4363,Nn1nnnc1-c1ccccc1,O,0,0,-0.62,['-0.62'],['pKa_prospector']
4364,O=c1[n-]c(=O)n(-c2ccccc2)o1,O,0,0,4.33,['4.33'],['pKa_prospector']
4365,Nc1nnnn1-c1ccccc1,O,0,0,1.12,['1.12'],['pKa_prospector']
4366,Nc1nc(N)c2cnn(-c3ccccc3)c2n1,O,0,0,4.45,['4.45'],['pKa_prospector']
4367,Nc1ncnc2c1cnn2-c1ccccc1,O,0,0,3.58,['3.58'],['pKa_prospector']
4368,Nc1cccc2c1-c1ccccc1C2,O,0,0,3.39,['3.39'],['pKa_prospector']
4369,Nc1ccc2c(c1)-c1ccccc1C2,O,0,0,4.82,['4.82'],['pKa_prospector']
4370,Nc1ccc2c(c1)Cc1ccccc1-2,O,0,0,4.42,['4.42'],['pKa_prospector']
4371,Oc1ccc(N=Nc2ccc3c(c2)Cc2ccccc2-3)c(O)c1,O,0,0,3.6,['3.60'],['pKa_prospector']
4372,Nc1ccc2c(c1O)Cc1ccccc1-2,O,0,0,4.82,['4.82'],['pKa_prospector']
4373,Nc1cccc2c1Cc1ccccc1-2,O,0,0,3.87,['3.87'],['pKa_prospector']
4374,O=C1C(c2ccccn2)=C([O-])c2ccccc21,O,0,0,10.67,['10.67'],['pKa_prospector']
4375,OCC[NH+]1CCN(CCC=C2c3ccccc3Sc3ccc(C(F)(F)F)cc32)CC1,O,0,0,7.8,['7.80'],['pKa_prospector']
4376,OCC[NH+]1CCN(CCC=C2c3ccccc3Sc3ccc(Cl)cc32)CC1,O,0,0,7.14,['7.14'],['pKa_prospector']
4377,O=C1CN=C(c2ccc(C(F)(F)F)cc2)c2ccccc2N1,O,0,0,3.06,['3.06'],['pKa_prospector']
4378,O=C1CN=C(c2ccc(F)cc2)c2ccccc2N1,O,0,0,4.01,['4.01'],['pKa_prospector']
4379,O=C1CN=C(c2cccc(C(F)(F)F)c2)c2ccccc2N1,O,0,0,3.22,['3.22'],['pKa_prospector']
4380,O=C1C=CC(=NO)c2ccccc21,O,0,0,8.01,['8.01'],['pKa_prospector']
4381,O=C1c2ccccc2C(=NO)c2ccccc21,O,0,0,9.78,['9.78'],['pKa_prospector']
4382,O=C1C([O-])=C(CC=C(Cl)Cl)C(=O)c2ccccc21,O,0,0,5.85,['5.85'],['pKa_prospector']
4383,O=C1C(=C2C=CN(CCC[NH+]3CCCCC3)C=C2)C(=O)c2ccccc21,O,0,0,8.6,['8.60'],['pKa_prospector']
4384,O=C1C(=C2C=CN(CC[NH+]3CCCCC3)C=C2)C(=O)c2ccccc21,O,0,0,6.35,['6.35'],['pKa_prospector']
4385,O=C1c2ccccc2C(=O)C1c1ccccn1,O,0,0,10.67,['10.67'],['pKa_prospector']
4386,O=C1C=C([O-])C(=O)c2ccccc21,O,0,0,4,['4.00'],['pKa_prospector']
4387,O=C1CC(C(=O)[O-])Oc2ccccc21,O,0,0,2.64,['2.64'],['pKa_prospector']
4388,O=C1c2ccccc2C(=O)N1O,O,0,0,6.1,['6.10'],['pKa_prospector']
4389,NS(=O)(=O)c1cc(C2(O)NC(=O)c3ccccc32)ccc1Cl,O,0,0,9.4,['9.40'],['pKa_prospector']
4390,O=C1[N-]S(=O)(=O)c2ccccc21,O,0,0,1.6,['1.60'],['pKa_prospector']
4391,O=C1OC(c2ccc(O)cc2)(c2ccc(O)cc2)c2ccccc21,O,0,0,9.7,['9.70'],['pKa_prospector']
4392,O=C([O-])c1ccc2c(c1)C(=O)c1ccccc1C2=O,O,0,0,3.42,['3.42'],['pKa_prospector']
4393,O=C1c2ccccc2C(=O)c2cc(S(=O)(=O)[O-])ccc21,O,0,0,0.42,['0.42'],['pKa_prospector']
4394,O=C([O-])c1cccc2c1C(=O)c1ccccc1C2=O,O,0,0,3.37,['3.37'],['pKa_prospector']
4395,O=C1c2ccccc2C(=O)c2c1cccc2S(=O)(=O)[O-],O,0,0,0.54,['0.54'],['pKa_prospector']
4396,OCC[NH+]1CCN(C2CC(c3ccc(F)cc3)c3ccccc32)CC1,O,0,0,7.61,['7.61'],['pKa_prospector']
4397,O=C(C[NH+]1CCCC1)NC1COc2ccccc21,O,0,0,8.1,['8.10'],['pKa_prospector']
4398,O=C(C[NH+]1CCCCC1)NC1COc2ccccc21,O,0,0,7.7,['7.70'],['pKa_prospector']
4399,O=C(C[NH+]1CCOCC1)NC1COc2ccccc21,O,0,0,5.2,['5.20'],['pKa_prospector']
4400,OC1NC=[NH+]c2ccccc21,O,0,0,7.77,['7.77'],['pKa_prospector']
4401,O=S1(=O)OC(c2cc(Br)c([O-])c(Br)c2)(c2cc(Br)c([O-])c(Br)c2)c2ccccc21,O,0,0,4.23,['4.23'],['pKa_prospector']
4402,O=S1(=O)OC(c2cc(Cl)c([O-])c(Cl)c2)(c2cc(Cl)c([O-])c(Cl)c2)c2ccccc21,O,0,0,4.43,['4.43'],['pKa_prospector']
4403,O=S1(=O)OC(c2ccc(O)c(Cl)c2)(c2ccc(O)c(Cl)c2)c2ccccc21,O,0,0,5.96,['5.96'],['pKa_prospector']
4404,O=S1(=O)OC(c2ccc(O)cc2)(c2ccc(O)cc2)c2ccccc21,O,0,0,7.99,['7.99'],['pKa_prospector']
4405,O=C1CC2OCCC3C[NH+]4CCC56c7ccccc7N1C5C2C3CC46,O,0,0,8.2,['8.20'],['pKa_prospector']
4406,O=C1CC2OC([N+](=O)[O-])C=C3C[NH+]4CCC56c7ccccc7N1C5C2C3CC46,O,0,0,7.82,['7.82'],['pKa_prospector']
4407,c1ccc2c(c1)C1CCN2CC1,O,0,0,7.76,['7.76'],['pKa_prospector']
4408,c1ccc2c(c1)C1CCN2c2ccccc21,O,0,0,4.46,['4.46'],['pKa_prospector']
4409,[NH3+]C1Cc2ccccc2C1,O,0,0,9.57,['9.57'],['pKa_prospector']
4410,[NH3+]C1Cc2ccccc2C1O,O,0,0,8.13,['8.13'],['pKa_prospector']
4411,O=C([O-])C1C=Cc2ccccc2C1,O,0,0,4.25,['4.25'],['pKa_prospector']
4412,O=C([O-])C1=CCc2ccccc2C1,O,0,0,4.6,['4.60'],['pKa_prospector']
4413,O=C([O-])C1C=CCc2ccccc21,O,0,0,3.95,['3.95'],['pKa_prospector']
4414,O=C([O-])C1=Cc2ccccc2CC1,O,0,0,4.54,['4.54'],['pKa_prospector']
4415,O=C([O-])C1CCc2ccccc2C1,O,0,0,4.62,['4.62'],['pKa_prospector']
4416,[NH3+]C1CCc2ccccc2C1,O,0,0,9.93,['9.93'],['pKa_prospector']
4417,O=C([O-])C1CCc2ccccc2O1,O,0,0,4.14,['4.14'],['pKa_prospector']
4418,[NH3+]C1CCc2ccccc21,O,0,0,9.21,['9.21'],['pKa_prospector']
4419,O=C([O-])C1=CCCc2ccccc21,O,0,0,4.12,['4.12'],['pKa_prospector']
4420,O=C([O-])C1CCCc2ccccc21,O,0,0,4.37,['4.37'],['pKa_prospector']
4421,c1ccc2c(c1)CCCC2C1=[NH+]CCN1,O,0,0,10.51,['10.51'],['pKa_prospector']
4422,[NH3+]C1CCCc2ccccc21,O,0,0,9.63,['9.63'],['pKa_prospector']
4423,c1ccc2c(c1)CCCN2,O,0,0,5.03,['5.03'],['pKa_prospector']
4424,NC(=[NH2+])N1CCc2ccccc2C1,O,0,0,11.9,['11.90'],['pKa_prospector']
4425,c1ccc2c(c1)CC[NH2+]C2,O,0,0,9.41,['9.41'],['pKa_prospector']
4426,O=C([O-])CCC(=O)c1ccc(N2Cc3ccccc3C2=O)cc1,O,0,0,5.29,['5.29'],['pKa_prospector']
4427,O=C([O-])Cc1ccc(N2Cc3ccccc3C2=O)cc1,O,0,0,3.9,['3.90'],['pKa_prospector']
4428,O=C([O-])COc1ccc(N2Cc3ccccc3C2=O)cc1,O,0,0,2.91,['2.91'],['pKa_prospector']
4429,C1=[NH+]c2ccccc2CN1,O,0,0,9.17,['9.17'],['pKa_prospector']
4430,c1ccc2c(c1)C[NH2+]CN2,O,0,0,7.63,['7.63'],['pKa_prospector']
4431,O=C([O-])Cc1ccc2c(c1)SCc1ccccc1C2=O,O,0,0,3.71,['3.71'],['pKa_prospector']
4432,c1ccc2c(c1)CNc1ccccc1C2,O,0,0,3,['3.00'],['pKa_prospector']
4433,N#Cc1ccc2c(c1)N(CCC[NH+]1CCC(O)CC1)c1ccccc1S2,O,0,0,8.45,['8.45'],['pKa_prospector']
4434,OCCOCC[NH+]1CCN(CCCN2c3ccccc3Sc3ccc(C(F)(F)F)cc32)CC1,O,0,0,8.02,['8.02'],['pKa_prospector']
4435,NC(=O)C1CC[NH+](CCCN2c3ccccc3Sc3ccc(Cl)cc32)CC1,O,0,0,8.6,['8.60'],['pKa_prospector']
4436,c1ccc2c(c1)Sc1ccccc1N2CC[NH+]1CCCC1,O,0,0,8.91,['8.91'],['pKa_prospector']
4437,O=S1(=O)NC=Nc2ccccc21,O,0,0,8.55,['8.55'],['pKa_prospector']
4438,c1ccc2c(c1)Nc1ccccc1S2,O,0,0,2.52,['2.52'],['pKa_prospector']
4439,NC(=[NH2+])NCC1COc2ccccc2O1,O,0,0,12.3,['12.30'],['pKa_prospector']
4440,O=c1[nH]c2ccccc2sc1=NO,O,0,0,7.67,['7.67'],['pKa_prospector']
4441,O=c1[nH]c2ccccc2[nH]c1=O,O,0,0,9.52,['9.52'],['pKa_prospector']
4442,O=C(CCC[NH+]1CC=C(n2c(=O)[nH]c3ccccc32)CC1)c1ccc(F)cc1,O,0,0,7.53,['7.53'],['pKa_prospector']
4443,O=c1[nH]c2ccccc2n1C1CC[NH+](CC(O)C2COc3ccccc3O2)CC1,O,0,0,7.64,['7.64'],['pKa_prospector']
4444,O=C(CCC[NH+]1CCC(n2c(=O)[nH]c3ccccc32)CC1)c1ccc(F)cc1,O,0,0,7.9,['7.90'],['pKa_prospector']
4445,O=c1[nH]c2ccccc2n1C1CC[NH+](CCCC(c2ccc(F)cc2)c2ccc(F)cc2)CC1,O,0,0,7.98,['7.98'],['pKa_prospector']
4446,O=c1[nH]c2ccccc2n1CCC[NH+]1CCC(n2c(=O)[nH]c3cc(Cl)ccc32)CC1,O,0,0,7.95,['7.95'],['pKa_prospector']
4447,OCC(O)C(O)C(O)C(O)c1nc2ccccc2[nH]1,O,0,0,5.25,['5.25'],['pKa_prospector']
4448,FC(F)(F)c1nc2ccccc2[nH]1,O,0,0,9.38,['9.38'],['pKa_prospector']
4449,Nc1nc2ccccc2[nH]1,O,0,0,7.51,['7.51'],['pKa_prospector']
4450,Nc1nc2ccccc2c(=O)[nH]1,O,0,0,9.54,['9.54'],['pKa_prospector']
4451,O=c1[nH]cnc2ccccc12,O,0,0,2.32,['2.32'],['pKa_prospector']
4452,O=c1[nH]nnc2ccccc12,O,0,0,8.19,['8.19'],['pKa_prospector']
4453,O=C([O-])c1ccc2oc3ccccc3c(=O)c2c1,O,0,0,3.73,['3.73'],['pKa_prospector']
4454,O=C([O-])c1ccc2c(=O)c3ccccc3oc2c1,O,0,0,3.53,['3.53'],['pKa_prospector']
4455,O=c1c2ccccc2oc2cc(-c3nnn[n-]3)ccc12,O,0,0,3.27,['3.27'],['pKa_prospector']
4456,O=c1c2ccccc2[nH]c2ccccc12,O,0,0,-0.32,['-0.32'],['pKa_prospector']
4457,O=C([O-])c1cc(=O)c2ccccc2o1,O,0,0,1.62,['1.62'],['pKa_prospector']
4458,O=c1c2ccccc2nc2n1CCC2,O,0,0,2.59,['2.59'],['pKa_prospector']
4459,O=c1c2ccccc2nc2n1CCCC2,O,0,0,3.69,['3.69'],['pKa_prospector']
4460,Nc1c2c([nH+]c3ccccc13)CCCC2,O,0,0,9.8,['9.80'],['pKa_prospector']
4461,Nc1c2c([nH+]c3ccccc13)OCCC2,O,0,0,7.8,['7.80'],['pKa_prospector']
4462,Nc1c2ccccc2[nH+]c2ccc(O)cc12,O,0,0,8.11,['8.11'],['pKa_prospector']
4463,Nc1ccc2c(Cl)c3ccccc3nc2c1,O,0,0,6.7,['6.70'],['pKa_prospector']
4464,Nc1ccc2c(N)c3ccccc3[nH+]c2c1,O,0,0,11.46,['11.46'],['pKa_prospector']
4465,Nc1c2ccccc2[nH+]c2cc(O)ccc12,O,0,0,6.88,['6.88'],['pKa_prospector']
4466,Nc1c2ccccc2[nH+]c2c(O)cccc12,O,0,0,7.4,['7.40'],['pKa_prospector']
4467,Nc1c2ccccc2[nH+]c2ccccc12,O,0,0,9.8,['9.80'],['pKa_prospector']
4468,Oc1c2ccccc2nc2ccccc12,O,0,0,-0.32,['-0.32'],['pKa_prospector']
4469,NC(=O)C([NH3+])Cc1c[nH]c2ccccc12,O,0,0,7.55,['7.55'],['pKa_prospector']
4470,[NH3+]CC(=O)NC(Cc1c[nH]c2ccccc12)C(=O)[O-],O,0,0,8.06,['8.06'],['pKa_prospector']
4471,O=C([O-])CCCc1c[nH]c2ccccc12,O,0,0,4.5,['4.50'],['pKa_prospector']
4472,[NH3+]CCc1c[nH]c2ccccc12,O,0,0,10.21,['10.21'],['pKa_prospector']
4473,O=c1cc([O-])c2ccccc2o1,O,0,0,4.08,['4.08'],['pKa_prospector']
4474,O=[N+]([O-])c1cc([N+](=O)[O-])c2ccccc2c1[O-],O,0,0,2.8,['2.80'],['pKa_prospector']
4475,Nc1ccc(C=Cc2cc(N)c3ccccc3[nH+]2)cc1,O,0,0,9.5,['9.50'],['pKa_prospector']
4476,Nc1cc(N)c2ccccc2[nH+]1,O,0,0,9.4,['9.40'],['pKa_prospector']
4477,Nc1ccc(Br)c2ccccc12,O,0,0,3.21,['3.21'],['pKa_prospector']
4478,Oc1ccc(Cl)c2ccccc12,O,0,0,8.81,['8.81'],['pKa_prospector']
4479,Nc1ccc([N+](=O)[O-])c2ccccc12,O,0,0,0.54,['0.54'],['pKa_prospector']
4480,Nc1ccc(S(=O)(=O)[O-])c2ccccc12,O,0,0,2.81,['2.81'],['pKa_prospector']
4481,O=S(=O)([O-])c1ccc([O-])c2ccccc12,O,0,0,8.2,['8.20'],['pKa_prospector']
4482,O=C([O-])c1ccnc2ccccc12,O,0,0,4.53,['4.53'],['pKa_prospector']
4483,Clc1ccnc2ccccc12,O,0,0,3.68,['3.68'],['pKa_prospector']
4484,Nc1cc[nH+]c2ccccc12,O,0,0,9.13,['9.13'],['pKa_prospector']
4485,Nc1cnnc2ccccc12,O,0,0,6.81,['6.81'],['pKa_prospector']
4486,[NH3+]C(Cc1csc2ccccc12)C(=O)[O-],O,0,0,9,['9.00'],['pKa_prospector']
4487,[NH3+]CCc1csc2ccccc12,O,0,0,9.94,['9.94'],['pKa_prospector']
4488,Nc1n[nH]c2ccccc12,O,0,0,3.12,['3.12'],['pKa_prospector']
4489,O=C([O-])Cc1n[nH]c(=O)c2ccccc12,O,0,0,3.73,['3.73'],['pKa_prospector']
4490,Nc1ncnc2ccccc12,O,0,0,5.84,['5.84'],['pKa_prospector']
4491,c1ccc2c(N3CC[NH2+]CC3)nsc2c1,O,0,0,8.68,['8.68'],['pKa_prospector']
4492,Nc1ccc2cnc3ccccc3c2c1,O,0,0,6.84,['6.84'],['pKa_prospector']
4493,Nc1ccc2nnc3ccccc3c2c1,O,0,0,6.68,['6.68'],['pKa_prospector']
4494,c1ccc2c(c1)[nH]c1c2cc[n+]2cc3c(cc12)CCCC3,O,0,0,10.6,['10.60'],['pKa_prospector']
4495,Nc1nc2ccccc2c2ccccc12,O,0,0,7.27,['7.27'],['pKa_prospector']
4496,c1ccc2c(c1)nnc1ccccc12,O,0,0,2.45,['2.45'],['pKa_prospector']
4497,Nc1cc2ccccc2[nH]1,O,0,0,8.15,['8.15'],['pKa_prospector']
4498,Nc1cc2ccccc2c2ccccc12,O,0,0,3.19,['3.19'],['pKa_prospector']
4499,Nc1cc(Br)c2ccccc2c1,O,0,0,3.4,['3.40'],['pKa_prospector']
4500,N#Cc1cc(N)cc2ccccc12,O,0,0,2.66,['2.66'],['pKa_prospector']
4501,Nc1cc(Cl)c2ccccc2c1,O,0,0,3.38,['3.38'],['pKa_prospector']
4502,Nc1cc(I)c2ccccc2c1,O,0,0,3.41,['3.41'],['pKa_prospector']
4503,Nc1cc([N+](=O)[O-])c2ccccc2c1,O,0,0,2.43,['2.43'],['pKa_prospector']
4504,Nc1cc(Br)cc2ccccc12,O,0,0,2.67,['2.67'],['pKa_prospector']
4505,N#Cc1cc(N)c2ccccc2c1,O,0,0,2.26,['2.26'],['pKa_prospector']
4506,Nc1cc(Cl)cc2ccccc12,O,0,0,2.69,['2.69'],['pKa_prospector']
4507,Nc1cc(I)cc2ccccc12,O,0,0,2.82,['2.82'],['pKa_prospector']
4508,Nc1cc([N+](=O)[O-])cc2ccccc12,O,0,0,2.07,['2.07'],['pKa_prospector']
4509,Nc1cc(O)cc2ccccc12,O,0,0,3.3,['3.30'],['pKa_prospector']
4510,Nc1cc(S(=O)(=O)[O-])cc2ccccc12,O,0,0,3.2,['3.20'],['pKa_prospector']
4511,O=S(=O)([O-])c1cc(O)c2ccccc2c1,O,0,0,8.7,['8.70'],['pKa_prospector']
4512,Nc1cc(S(=O)(=O)[O-])c2ccccc2c1,O,0,0,3.7,['3.70'],['pKa_prospector']
4513,Brc1cnc2ccccc2c1,O,0,0,2.75,['2.75'],['pKa_prospector']
4514,O=C([O-])c1cnc2ccccc2c1,O,0,0,4.62,['4.62'],['pKa_prospector']
4515,Clc1cnc2ccccc2c1,O,0,0,2.63,['2.63'],['pKa_prospector']
4516,Fc1cnc2ccccc2c1,O,0,0,2.5,['2.50'],['pKa_prospector']
4517,Nc1cnc2ccccc2c1,O,0,0,4.91,['4.91'],['pKa_prospector']
4518,O=[N+]([O-])c1cnc2ccccc2c1,O,0,0,1.03,['1.03'],['pKa_prospector']
4519,Nc1cc2ccccc2nn1,O,0,0,3.69,['3.69'],['pKa_prospector']
4520,Nc1cccc2nc3ccccc3cc12,O,0,0,5.85,['5.85'],['pKa_prospector']
4521,Nc1ccc2nc3ccccc3cc2c1,O,0,0,5.58,['5.58'],['pKa_prospector']
4522,Nc1ccc2cc3ccccc3nc2c1,O,0,0,7.88,['7.88'],['pKa_prospector']
4523,Nc1cccc2cc3ccccc3nc12,O,0,0,4.12,['4.12'],['pKa_prospector']
4524,O=C([O-])c1c2ccccc2cc2ccccc12,O,0,0,4.12,['4.12'],['pKa_prospector']
4525,c1ccc2nc3ccccc3cc2c1,O,0,0,4.85,['4.85'],['pKa_prospector']
4526,O=c1[nH]ccc2ccccc12,O,0,0,-1.2,['-1.20'],['pKa_prospector']
4527,Oc1ccc2ccccc2c1Br,O,0,0,8,['8.00'],['pKa_prospector']
4528,Oc1ccc2ccccc2c1I,O,0,0,8.41,['8.41'],['pKa_prospector']
4529,Nc1ccc2ccccc2c1[N+](=O)[O-],O,0,0,-0.85,['-0.85'],['pKa_prospector']
4530,Nc1c([N+](=O)[O-])ccc2ccccc12,O,0,0,-1.74,['-1.74'],['pKa_prospector']
4531,Nc1c(S(=O)(=O)[O-])ccc2ccccc12,O,0,0,1.71,['1.71'],['pKa_prospector']
4532,Oc1ccc2ccccc2c1N=Nc1ccccn1,O,0,0,10.3,['10.30'],['pKa_prospector']
4533,O=Nc1c(O)ccc2ccccc12,O,0,0,7.6,['7.60'],['pKa_prospector']
4534,O=[N+]([O-])c1ccc2ccccc2c1[O-],O,0,0,6.15,['6.15'],['pKa_prospector']
4535,O=Nc1ccc2ccccc2c1O,O,0,0,7.3,['7.30'],['pKa_prospector']
4536,Nc1ccc2ccccc2c1S(=O)(=O)[O-],O,0,0,2.35,['2.35'],['pKa_prospector']
4537,Brc1ccc2ccccc2n1,O,0,0,1.05,['1.05'],['pKa_prospector']
4538,Nc1ccc2ccccc2n1,O,0,0,7.3,['7.30'],['pKa_prospector']
4539,c1ccc2nc(N3CC[NH2+]CC3)ccc2c1,O,0,0,8.82,['8.82'],['pKa_prospector']
4540,Nc1ccc2ccc3ccccc3c2c1,O,0,0,3.59,['3.59'],['pKa_prospector']
4541,Nc1ccc2cc3c(ccc4ccccc43)nc2c1,O,0,0,7.38,['7.38'],['pKa_prospector']
4542,c1ccc2nc3ccc4ccccc4c3cc2c1,O,0,0,4.7,['4.70'],['pKa_prospector']
4543,Nc1ccc2c(ccc3ccccc32)c1,O,0,0,3.6,['3.60'],['pKa_prospector']
4544,c1ccc2c(c1)ccc1ncccc12,O,0,0,4.86,['4.86'],['pKa_prospector']
4545,Nc1ccc2cc3ccc4ccccc4c3nc2c1,O,0,0,6.68,['6.68'],['pKa_prospector']
4546,c1ccc2c(c1)ccc1cccnc12,O,0,0,3.6,['3.60'],['pKa_prospector']
4547,O=C([O-])CCC(=O)c1cccc2ccccc12,O,0,0,4.48,['4.48'],['pKa_prospector']
4548,O=C([O-])c1cccc2ccccc12,O,0,0,4.58,['4.58'],['pKa_prospector']
4549,O=C([O-])Cc1cccc2ccccc12,O,0,0,4.24,['4.24'],['pKa_prospector']
4550,c1ccc2c(CC3=[NH+]CCN3)cccc2c1,O,0,0,10.25,['10.25'],['pKa_prospector']