,Solute SMILES,Solvent SMILES,Solute CAS,Solute IUPAC,pKa (avg),pKa (all),Source
2375,COc1cc(Cc2cnc(N)nc2N)cc(OC)c1-n1cccc1,O,0,0,7.02,['7.02'],['pKa_prospector']
2376,COc1cc(Cc2cnc(N)nc2N)cc(OC)n1,O,0,0,7.05,['7.05'],['pKa_prospector']
2377,COc1cc(Cc2cnc(N)nc2N)cc2c1OCO2,O,0,0,7.17,['7.17'],['pKa_prospector']
2378,C=CC[NH+]1CCC(CNC(=O)c2cc(OC)c3[nH]nnc3c2)C1,O,0,0,8.7,['8.70'],['pKa_prospector']
2379,COc1cc(N)cc2ccccc12,O,0,0,4.05,['4.05'],['pKa_prospector']
2380,COc1cc(NC(=O)NC(N)=[NH2+])ccc1C#N,O,0,0,6.96,['6.96'],['pKa_prospector']
2381,COc1cc(O)ccc1C(=N)c1ccccc1,O,0,0,5.99,['5.99'],['pKa_prospector']
2382,COc1cc(N)ccc1C(=O)[O-],O,0,0,5.04,['5.04'],['pKa_prospector']
2383,COc1cc(C(O)C(=O)[O-])ccc1O,O,0,0,3.44,['3.44'],['pKa_prospector']
2384,COc1cc(C=O)ccc1O,O,0,0,7.33,['7.33'],['pKa_prospector']
2385,COc1cc(CC(=O)[O-])ccc1O,O,0,0,4.35,['4.35'],['pKa_prospector']
2386,C=CCc1ccc(O)c(OC)c1,O,0,0,10,['10.00'],['pKa_prospector']
2387,COc1cc(N)ccc1P(=O)([O-])[O-],O,0,0,8.22,['8.22'],['pKa_prospector']
2388,COc1cc(S(C)=O)ccc1-c1nc2cnccc2[nH]1,O,0,0,6.17,['6.17'],['pKa_prospector']
2389,COc1cc(S(C)=O)ccc1-c1cn2ccnc(OC)c2[nH+]1,O,0,0,2.46,['2.46'],['pKa_prospector']
2390,COc1cc(S(C)=O)ccc1-c1cn2ccncc2[nH+]1,O,0,0,2.88,['2.88'],['pKa_prospector']
2391,COC(=O)c1ccccc1CS(=O)(=O)Nc1nc(OC)cc(OC)n1,O,0,0,5.2,['5.20'],['pKa_prospector']
2392,COc1cc([N-]S(=O)(=O)c2ccc(N)cc2)ncn1,O,0,0,5.99,['5.99'],['pKa_prospector']
2393,COc1cc(SC)ncn1,O,0,0,1.62,['1.62'],['pKa_prospector']
2394,C=CC[NH+]1CCCC1CNC(=O)c1cc2nn[nH]c2cc1OC,O,0,0,8.62,['8.62'],['pKa_prospector']
2395,COc1cc2c(cc1OC)C13CC[NH+]4CC5CCOC6CC(=O)N2C1C6C5CC43,O,0,0,8.27,['8.27'],['pKa_prospector']
2396,COc1cc2nc(N3CCN(C(=O)c4ccco4)CC3)nc(N)c2cc1OC,O,0,0,6.5,['6.50'],['pKa_prospector']
2397,COc1cc(N)c2ccccc2c1,O,0,0,3.26,['3.26'],['pKa_prospector']
2398,COc1ccc([O-])c([N+](=O)[O-])c1,O,0,0,7.4,['7.40'],['pKa_prospector']
2399,COc1ccc(OC)c([NH+]=C2NCCN2)c1,O,0,0,10.15,['10.15'],['pKa_prospector']
2400,COc1ccc(C(=N)c2ccccc2)c(OC)c1,O,0,0,8.3,['8.30'],['pKa_prospector']
2401,COc1ccc(-c2nc3cccnc3[nH]2)c(OC)c1,O,0,0,4.63,['4.63'],['pKa_prospector']
2402,COc1ccc(-c2nc3cnccc3[nH]2)c(OC)c1,O,0,0,6.52,['6.52'],['pKa_prospector']
2403,COc1ccc(Cl)c(Nc2ccccc2CC(=O)[O-])c1Cl,O,0,0,3.95,['3.95'],['pKa_prospector']
2404,COc1ccc(Cc2cnc(N)nc2N)c(OC)n1,O,0,0,7.2,['7.20'],['pKa_prospector']
2405,COc1ccc(OC)c2c1CC[NH2+]C2,O,0,0,8.26,['8.26'],['pKa_prospector']
2406,COc1ccc(C(N)=[NH+]O)cc1,O,0,0,13.83,['13.83'],['pKa_prospector']
2407,COc1ccc(C(=O)C(Br)=CC(=O)[O-])cc1,O,0,0,3.46,['3.46'],['pKa_prospector']
2408,COc1ccc(C(=O)NO)cc1,O,0,0,9,['9.00'],['pKa_prospector']
2409,COc1ccc(C(=O)NP(=O)(N2CC2)N2CC2)cc1,O,0,0,8.52,['8.52'],['pKa_prospector']
2410,COc1ccc(C(=O)[O-])cc1,O,0,0,5.15,['5.15'],['pKa_prospector']
2411,COc1ccc(C(=O)c2coc(S(N)(=O)=O)c2)cc1,O,0,0,9.5,['9.50'],['pKa_prospector']
2412,COc1ccc(C(=O)c2csc(S(N)(=O)=O)c2)cc1,O,0,0,8.2,['8.20'],['pKa_prospector']
2413,COc1ccc(C(=O)c2ccc3n2CCC3C(=O)[O-])cc1,O,0,0,3.55,['3.55'],['pKa_prospector']
2414,COc1ccc(C(=S)C=C(N)C(F)(F)F)cc1,O,0,0,9.82,['9.82'],['pKa_prospector']
2415,COc1ccc(C2([NH+]3CCCCC3)CCCCC2)cc1,O,0,0,9.01,['9.01'],['pKa_prospector']
2416,COc1ccc(C=CC(=O)[O-])cc1,O,0,0,4.54,['4.54'],['pKa_prospector']
2417,COc1ccc(C=Cc2ccncc2)cc1,O,0,0,6.03,['6.03'],['pKa_prospector']
2418,COc1ccc(C=NNC(N)=[NH2+])cc1,O,0,0,9.2,['9.20'],['pKa_prospector']
2419,COc1ccc(C=NNC(N)=O)cc1,O,0,0,-1.2,['-1.20'],['pKa_prospector']
2420,COc1ccc(CC(=O)[O-])cc1,O,0,0,4.36,['4.36'],['pKa_prospector']
2421,COc1ccc(CCC(=O)[O-])cc1,O,0,0,5.3,['5.30'],['pKa_prospector']
2422,COc1ccc(C[NH3+])cc1,O,0,0,9.47,['9.47'],['pKa_prospector']
2423,COc1ccc(NC(=O)C[NH+]2CCCCC2)cc1,O,0,0,8.1,['8.10'],['pKa_prospector']
2424,COc1ccc(NC(=O)NC(N)=[NH2+])cc1,O,0,0,7.73,['7.73'],['pKa_prospector']
2425,COc1ccc(NC(=O)OCC[NH+]2CCCCC2)cc1,O,0,0,8.87,['8.87'],['pKa_prospector']
2426,COc1ccc([N-]S(=O)(=O)C(F)(F)F)cc1,O,0,0,4.9,['4.90'],['pKa_prospector']
2427,COc1ccc([N-]S(=O)(=O)c2ccc(N)cc2)cc1,O,0,0,9.53,['9.53'],['pKa_prospector']
2428,COc1ccc(OC(N)=O)cc1,O,0,0,-1.6,['-1.60'],['pKa_prospector']
2429,COc1ccc(OCC(=O)[O-])cc1,O,0,0,3.21,['3.21'],['pKa_prospector']
2430,COc1ccc(P([O-])O)cc1,O,0,0,2.35,['2.35'],['pKa_prospector']
2431,COc1ccc(S(=O)(=O)c2coc(S(N)(=O)=O)c2)cc1,O,0,0,8.5,['8.50'],['pKa_prospector']
2432,COc1ccc(S(=O)(=O)c2csc(S(N)(=O)=O)c2)cc1,O,0,0,8.78,['8.78'],['pKa_prospector']
2433,COc1ccc(-c2nnn[n-]2)cc1,O,0,0,4.85,['4.85'],['pKa_prospector']
2434,COc1ccc(-c2nc(C(F)(F)F)[nH]c2-c2ccc(OC)cc2)cc1,O,0,0,10.7,['10.70'],['pKa_prospector']
2435,COc1ccc(-c2ccccc2C(=O)[O-])cc1,O,0,0,3.5,['3.50'],['pKa_prospector']
2436,COc1ccc(N)cc1Br,O,0,0,4.08,['4.08'],['pKa_prospector']
2437,COc1ccc(S(N)(=O)=O)cc1C(=O)NC1CCC2CCC1[NH+]2Cc1ccccc1,O,0,0,8.74,['8.74'],['pKa_prospector']
2438,COc1ccc(S(N)(=O)=O)cc1C(=O)NCC1CCC[NH+]1Cc1ccc(F)cc1,O,0,0,8.25,['8.25'],['pKa_prospector']
2439,COc1ccc(Cl)cc1C(=O)NCCc1ccc(C(=O)[O-])cc1,O,0,0,4.4,['4.40'],['pKa_prospector']
2440,COc1ccc(Cl)cc1C(=O)NCCc1ccc(S(=O)(=O)[N-]C(=O)NC2CCCCC2)cc1,O,0,0,5.8,['5.80'],['pKa_prospector']
2441,COc1ccc(C=O)cc1O,O,0,0,8.89,['8.89'],['pKa_prospector']
2442,COc1ccc(CC(=O)[O-])cc1OC,O,0,0,4.33,['4.33'],['pKa_prospector']
2443,COc1ccc(CC[NH3+])cc1OC,O,0,0,9.75,['9.75'],['pKa_prospector']
2444,COc1ccc(CC[NH2+]CC(O)COc2ccc(COCc3ncc[nH]3)cc2)cc1OC,O,0,0,7.95,['7.95'],['pKa_prospector']
2445,COc1ccc(CC[NH2+]CC(O)COc2ccc(OCc3ncc[nH]3)cc2)cc1OC,O,0,0,7.9,['7.90'],['pKa_prospector']
2446,COc1ccc(CC[NH2+]CC(O)COc2ccc(-c3[nH]c(CO)c[nH+]3)cc2)cc1OC,O,0,0,7.92,['7.92'],['pKa_prospector']
2447,COc1ccc(CC[NH2+]CC(O)COc2ccc(-c3ncco3)cc2)cc1OC,O,0,0,8.4,['8.40'],['pKa_prospector']
2448,COc1ccc(CC[NH2+]CC(O)COc2cccc3[nH]c(C(N)=O)cc23)cc1OC,O,0,0,7.9,['7.90'],['pKa_prospector']
2449,COc1ccc(C[NH3+])cc1OC,O,0,0,9.39,['9.39'],['pKa_prospector']
2450,COc1ccc(Cc2nccc3cc(OC)c(OC)cc23)cc1OC,O,0,0,6.01,['6.01'],['pKa_prospector']
2451,COc1ccc(OC)nn1,O,0,0,1.61,['1.61'],['pKa_prospector']
2452,COc1cc2c(c(OC)c1OC)-c1ccc(OC)c(=O)cc1C([NH3+])CC2,O,0,0,4.29,['4.29'],['pKa_prospector']
2453,COc1ccc2c(c1)C(c1ccccc1)=NCC(=O)N2,O,0,0,4.04,['4.04'],['pKa_prospector']
2454,COc1ccc2c(c1)C(N1CC[NH+](CCO)CC1)CC2c1ccc(F)cc1,O,0,0,7.53,['7.53'],['pKa_prospector']
2455,COc1ccc2c(c1)C13CC[NH+]4CC5=CCOC6CC(=O)N2C1C6C5CC43,O,0,0,8.38,['8.38'],['pKa_prospector']
2456,COc1ccc2c(c1)OCC2NC(=O)C[NH+]1CCCC1,O,0,0,8.2,['8.20'],['pKa_prospector']
2457,COc1ccc2c(c1)OCC2NC(=O)C[NH+]1CCCCC1,O,0,0,7.8,['7.80'],['pKa_prospector']
2458,COc1ccc2c(c1)OCC2NC(=O)C[NH+]1CCOCC1,O,0,0,5.2,['5.20'],['pKa_prospector']
2459,COc1ccc2nccc(Cl)c2c1,O,0,0,3.93,['3.93'],['pKa_prospector']
2460,COc1ccc2[nH+]ccc(N)c2c1,O,0,0,8.93,['8.93'],['pKa_prospector']
2461,COc1ccc2c(N)cccc2c1,O,0,0,3.9,['3.90'],['pKa_prospector']
2462,COc1ccc2ncccc2c1,O,0,0,5.03,['5.03'],['pKa_prospector']
2463,COc1ccc2oc(N(N)CCC#N)nc2c1,O,0,0,2.81,['2.81'],['pKa_prospector']
2464,COc1ccc2sc(N)nc2c1,O,0,0,4.35,['4.35'],['pKa_prospector']
2465,COc1ccc2nc(N(N)CCC#N)oc2c1,O,0,0,2.94,['2.94'],['pKa_prospector']
2466,COc1ccc2nc(N)sc2c1,O,0,0,4.5,['4.50'],['pKa_prospector']
2467,COc1ccc2c(Cl)ccnc2c1,O,0,0,4.32,['4.32'],['pKa_prospector']
2468,COc1ccc2c3c1OC1C(O)C=CC4C(C2)N(CCC#N)CCC341,O,0,0,5.68,['5.68'],['pKa_prospector']
2469,COc1ccc2cc(N)ccc2c1,O,0,0,4.64,['4.64'],['pKa_prospector']
2470,COc1ccc2ccc(N)cc2c1,O,0,0,4.19,['4.19'],['pKa_prospector']
2471,COc1ccc2cccc(N)c2c1,O,0,0,4.07,['4.07'],['pKa_prospector']
2472,COc1ccc2ccccc2n1,O,0,0,3.16,['3.16'],['pKa_prospector']
2473,COc1cccc(C(=N)c2ccccc2)c1,O,0,0,6.59,['6.59'],['pKa_prospector']
2474,COc1cccc(C(=O)NP(=O)(N2CC2)N2CC2)c1,O,0,0,8.14,['8.14'],['pKa_prospector']
2475,COc1cccc(C(=O)[O-])c1,O,0,0,4.6,['4.60'],['pKa_prospector']
2476,COc1cccc(C2=NCC(=O)Nc3ccc(Cl)cc32)c1,O,0,0,3.29,['3.29'],['pKa_prospector']
2477,COc1cccc(C=CC(=O)[O-])c1,O,0,0,5,['5.00'],['pKa_prospector']
2478,COc1cccc(CCC(=O)[O-])c1,O,0,0,4.65,['4.65'],['pKa_prospector']
2479,COc1cccc(C[NH3+])c1,O,0,0,9.15,['9.15'],['pKa_prospector']
2480,COc1cccc(NC(=O)OCC[NH+]2CCCCC2)c1,O,0,0,8.86,['8.86'],['pKa_prospector']
2481,COc1cccc(Nc2ccccc2C(=O)[O-])c1,O,0,0,5.17,['5.17'],['pKa_prospector']
2482,COc1cccc(OCC(=O)[O-])c1,O,0,0,3.14,['3.14'],['pKa_prospector']
2483,COc1cccc(C(=O)[O-])c1CO,O,0,0,3.58,['3.58'],['pKa_prospector']
2484,COc1cccc(C=O)c1O,O,0,0,7.83,['7.83'],['pKa_prospector']
2485,COc1cccc(C(=O)NC2CC3CCC(C2)[NH+]3Cc2ccccc2)c1OC,O,0,0,8.91,['8.91'],['pKa_prospector']
2486,COc1cccc(C[NH3+])c1OC,O,0,0,9.41,['9.41'],['pKa_prospector']
2487,COc1cccc2c1NC1CCCCC21,O,0,0,5.43,['5.43'],['pKa_prospector']
2488,COc1cccc2[nH+]c3c(c(N)c12)CCCC3,O,0,0,10.4,['10.40'],['pKa_prospector']
2489,COc1cccc2[nH+]c3c(c(N)c12)CCCO3,O,0,0,8.11,['8.11'],['pKa_prospector']
2490,COc1cccc2sc(N)nc12,O,0,0,4.29,['4.29'],['pKa_prospector']
2491,COc1cccc2cccnc12,O,0,0,5.01,['5.01'],['pKa_prospector']
2492,COc1ccccc1C(=N)c1ccccc1,O,0,0,7.29,['7.29'],['pKa_prospector']
2493,COc1ccccc1C(=O)NCCCC[NH3+],O,0,0,10.35,['10.35'],['pKa_prospector']
2494,COc1ccccc1C(=O)NCCC[NH3+],O,0,0,10.01,['10.01'],['pKa_prospector']
2495,COc1ccccc1C(=O)NCC[NH3+],O,0,0,9.13,['9.13'],['pKa_prospector']
2496,COc1ccccc1C(=O)[O-],O,0,0,5.04,['5.04'],['pKa_prospector']
2497,COc1ccccc1C1=NCC(=O)Nc2ccc(Cl)cc21,O,0,0,3.66,['3.66'],['pKa_prospector']
2498,COc1ccccc1C=CC(=O)[O-],O,0,0,4.46,['4.46'],['pKa_prospector']
2499,COc1ccccc1C=NNC(N)=O,O,0,0,-1.15,['-1.15'],['pKa_prospector']
2500,COc1ccccc1CCC(=O)[O-],O,0,0,4.8,['4.80'],['pKa_prospector']
2501,COc1ccccc1CCC(O)C[NH2+]CCOc1ccc(O)c(C(N)=O)c1,O,0,0,8.9,['8.90'],['pKa_prospector']
2502,COc1ccccc1C[NH3+],O,0,0,9.7,['9.70'],['pKa_prospector']
2503,COc1ccccc1C[NH2+]C(Cc1ccccc1)Cc1ccccc1,O,0,0,6.7,['6.70'],['pKa_prospector']
2504,COc1ccccc1COC(O)C[NH2+]CCOc1ccc(O)c(C(N)=O)c1,O,0,0,8.8,['8.80'],['pKa_prospector']
2505,COc1ccccc1N1CC[NH2+]CC1,O,0,0,9.37,['9.37'],['pKa_prospector']
2506,COc1ccccc1NC(=O)OCC[NH+]1CCCCC1,O,0,0,8.86,['8.86'],['pKa_prospector']
2507,COc1ccccc1NCCO,O,0,0,4.4,['4.40'],['pKa_prospector']
2508,COc1ccccc1[N-]S(=O)(=O)c1ccc(N)cc1,O,0,0,9.4,['9.40'],['pKa_prospector']
2509,COc1ccccc1OCC(=O)[O-],O,0,0,3.23,['3.23'],['pKa_prospector']
2510,COc1ccccc1-c1nnn[n-]1,O,0,0,5.92,['5.92'],['pKa_prospector']
2511,COc1ccnc2c1ccc1c(OC)ccnc12,O,0,0,6.43,['6.43'],['pKa_prospector']
2512,COc1ccnc2ccccc12,O,0,0,6.45,['6.45'],['pKa_prospector']
2513,COc1cnc([N-]S(=O)(=O)c2ccc(N)cc2)nc1,O,0,0,6.78,['6.78'],['pKa_prospector']
2514,COc1cnc2ncncc2n1,O,0,0,3.57,['3.57'],['pKa_prospector']
2515,COc1cnc2ccccc2n1,O,0,0,0.28,['0.28'],['pKa_prospector']
2516,COc1cnc2cncnc2n1,O,0,0,1.64,['1.64'],['pKa_prospector']
2517,COc1cnnc2ccccc12,O,0,0,3.15,['3.15'],['pKa_prospector']
2518,COc1nc(O)c2nccnc2n1,O,0,0,-0.93,['-0.93'],['pKa_prospector']
2519,COc1ncc2nccnc2n1,O,0,0,2.1,['2.10'],['pKa_prospector']
2520,COc1ncc2ccccc2n1,O,0,0,1.31,['1.31'],['pKa_prospector']
2521,CS(=O)(=O)CC(=O)C=NO,O,0,0,7.46,['7.46'],['pKa_prospector']
2522,CS(=O)(=O)CC(=O)[O-],O,0,0,2.36,['2.36'],['pKa_prospector']
2523,CS(=O)(=O)CCNCc1cc2cc(S(N)(=O)=O)sc2s1,O,0,0,5.2,['5.20'],['pKa_prospector']
2524,CS(=O)(=O)NCC[NH+]1CCc2cccc(Cl)c2CC1,O,0,0,7.75,['7.75'],['pKa_prospector']
2525,CS(=O)(=O)Nc1ccc([N+](=O)[O-])cc1Oc1ccccc1,O,0,0,5.9,['5.90'],['pKa_prospector']
2526,CS(=O)(=O)Nc1ccccc1,O,0,0,8.85,['8.85'],['pKa_prospector']
2527,CS(=O)(=O)OCCC[NH2+]CCCOS(C)(=O)=O,O,0,0,8.77,['8.77'],['pKa_prospector']
2528,CS(=O)(=O)c1ccc(C(=O)[O-])cc1,O,0,0,4.1,['4.10'],['pKa_prospector']
2529,CS(=O)(=O)c1ccc(N)cc1,O,0,0,1.36,['1.36'],['pKa_prospector']
2530,CS(=O)(=O)c1ccc([O-])cc1,O,0,0,7.83,['7.83'],['pKa_prospector']
2531,CS(=O)(=O)c1ccc(OCC(=O)[O-])cc1,O,0,0,3.1,['3.10'],['pKa_prospector']
2532,CS(=O)(=O)c1cccc(C(=O)[O-])c1,O,0,0,4.21,['4.21'],['pKa_prospector']
2533,CS(=O)(=O)c1cccc(N)c1,O,0,0,2.56,['2.56'],['pKa_prospector']
2534,CS(=O)(=O)c1cccc(O)c1,O,0,0,8.39,['8.39'],['pKa_prospector']
2535,CS(=O)CC(=O)C=NO,O,0,0,7.74,['7.74'],['pKa_prospector']
2536,CS(=O)CC[NH2+]Cc1cc2cc(S(N)(=O)=O)sc2s1,O,0,0,5.58,['5.58'],['pKa_prospector']
2537,CSCC(=O)C=NO,O,0,0,8.16,['8.16'],['pKa_prospector']
2538,CSCC([NH3+])C(=O)[O-],O,0,0,8.75,['8.75'],['pKa_prospector']
2539,CSCCC([NH3+])C(N)=O,O,0,0,7.53,['7.53'],['pKa_prospector']
2540,CSCC[NH2+]Cc1cc2cc(S(N)(=O)=O)sc2s1,O,0,0,6.85,['6.85'],['pKa_prospector']
2541,CSc1nc2ccc3c(c2[nH]1)CCCC3,O,0,0,4.7,['4.70'],['pKa_prospector']
2542,CSc1ncnc2nccnc12,O,0,0,2.53,['2.53'],['pKa_prospector']
2543,CSc1nccc2ccccc12,O,0,0,3.89,['3.89'],['pKa_prospector']
2544,CSc1nncc2ccccc12,O,0,0,3.44,['3.44'],['pKa_prospector']
2545,CSc1cc(N)nc(N)n1,O,0,0,5.44,['5.44'],['pKa_prospector']
2546,CSc1cc2ccccc2cn1,O,0,0,3.37,['3.37'],['pKa_prospector']
2547,CSc1cnc2ccccc2c1,O,0,0,3.84,['3.84'],['pKa_prospector']
2548,CSc1ccc(N)cc1,O,0,0,4.4,['4.40'],['pKa_prospector']
2549,CSc1ccc(O)cc1,O,0,0,9.53,['9.53'],['pKa_prospector']
2550,CSc1ccc2c(c1)C(c1ccccc1)=NCC(=O)N2,O,0,0,3.96,['3.96'],['pKa_prospector']
2551,CSc1ccc2c(c1)C(N1CC[NH+](CCO)CC1)CC2c1ccc(F)cc1,O,0,0,7.44,['7.44'],['pKa_prospector']
2552,CSc1ccc2ncccc2c1,O,0,0,4.71,['4.71'],['pKa_prospector']
2553,CSc1ccc2oc(N(N)CCC#N)nc2c1,O,0,0,2.42,['2.42'],['pKa_prospector']
2554,CSc1ccc2ccccc2n1,O,0,0,3.67,['3.67'],['pKa_prospector']
2555,CSc1cccc(O)c1,O,0,0,9.53,['9.53'],['pKa_prospector']
2556,CSc1cccc2ncccc12,O,0,0,4.46,['4.46'],['pKa_prospector']
2557,CSc1cccc2cccnc12,O,0,0,3.46,['3.46'],['pKa_prospector']
2558,CSc1ccccc1C1=NCC(=O)Nc2ccc(Cl)cc21,O,0,0,2.65,['2.65'],['pKa_prospector']
2559,CSc1ccnc2ccccc12,O,0,0,5.85,['5.85'],['pKa_prospector']
2560,CSc1cnc2ccccc2n1,O,0,0,0.29,['0.29'],['pKa_prospector']
2561,CSc1cnc2cncnc2n1,O,0,0,2.46,['2.46'],['pKa_prospector']
2562,CSc1cnnc2ccccc12,O,0,0,3.09,['3.09'],['pKa_prospector']
2563,CSc1ncc(N)c(N)n1,O,0,0,5.03,['5.03'],['pKa_prospector']
2564,CSc1ncc2nccnc2n1,O,0,0,2.2,['2.20'],['pKa_prospector']
2565,C[N+](C)(C)CCCC(=O)[O-],O,0,0,3.94,['3.94'],['pKa_prospector']
2566,C[N+](C)(C)Cc1ccc(C(=O)[O-])cc1,O,0,0,3.25,['3.25'],['pKa_prospector']
2567,C[N+](C)(C)Cc1cccc(C(=O)[O-])c1,O,0,0,3.22,['3.22'],['pKa_prospector']
2568,C[N+](C)(C)c1ccc(C(=O)[O-])cc1,O,0,0,3.43,['3.43'],['pKa_prospector']
2569,C[N+](C)(C)c1cccc(C(=O)[O-])c1,O,0,0,3.45,['3.45'],['pKa_prospector']
2570,C[N+](C)(C)c1ccccc1C(=O)[O-],O,0,0,1.37,['1.37'],['pKa_prospector']
2571,C[n+]1cc(O)cc2ccccc21,O,0,0,5.39,['5.39'],['pKa_prospector']
2572,C[n+]1cc(O)c2ccccc2c1,O,0,0,4.9,['4.90'],['pKa_prospector']
2573,C[n+]1ccc2c(O)cccc2c1,O,0,0,6.87,['6.87'],['pKa_prospector']
2574,C[n+]1ccc2ccc(O)cc2c1,O,0,0,7.06,['7.06'],['pKa_prospector']
2575,C[n+]1cccc2cccc([O-])c21,O,0,0,6.78,['6.78'],['pKa_prospector']
2576,C[n+]1cccc2cc([O-])ccc21,O,0,0,7.12,['7.12'],['pKa_prospector']
2577,C[n+]1ccccc1C=NO,O,0,0,7.82,['7.82'],['pKa_prospector']
2578,C=Cn1cc[n+](C)c1C=NO,O,0,0,7.92,['7.92'],['pKa_prospector']
2579,C[n+]1ccn(CCC#N)c1C=NO,O,0,0,7.99,['7.99'],['pKa_prospector']
2580,C[n+]1ccn(CCCC#N)c1C=NO,O,0,0,8.1,['8.10'],['pKa_prospector']
2581,C#CCCCCn1cc[n+](C)c1C=NO,O,0,0,8.18,['8.18'],['pKa_prospector']
2582,C[n+]1ccn(CCCCC#N)c1C=NO,O,0,0,8.18,['8.18'],['pKa_prospector']
2583,COC(=O)CCCCCn1cc[n+](C)c1C=NO,O,0,0,8.19,['8.19'],['pKa_prospector']
2584,C[n+]1ccn(CCCCCOC(=O)c2ccccc2O)c1C=NO,O,0,0,7.95,['7.95'],['pKa_prospector']
2585,C[n+]1ccn(CCCCOC(=O)c2ccccc2O)c1C=NO,O,0,0,8.05,['8.05'],['pKa_prospector']
2586,C[n+]1ccn(CCC[NH+](C)C)c1C=NO,O,0,0,7.95,['7.95'],['pKa_prospector']
2587,C[n+]1ccn(CCCOC(=O)c2ccc(Cl)cc2O)c1C=NO,O,0,0,8.03,['8.03'],['pKa_prospector']
2588,C[n+]1ccn(CCCOC(=O)c2ccccc2O)c1C=NO,O,0,0,8.08,['8.08'],['pKa_prospector']
2589,C#CCOCCCn1cc[n+](C)c1C=NO,O,0,0,8.1,['8.10'],['pKa_prospector']
2590,C[n+]1ccn(CCC[n+]2ccc(C(N)=O)cc2)c1C=NO,O,0,0,7.92,['7.92'],['pKa_prospector']
2591,C[n+]1ccn(CCF)c1C=NO,O,0,0,8.08,['8.08'],['pKa_prospector']
2592,C[n+]1ccn(CC[NH+](C)C)c1C=NO,O,0,0,8.07,['8.07'],['pKa_prospector']
2593,C[n+]1ccn(CC[NH+]2CCCC2)c1C=NO,O,0,0,7.93,['7.93'],['pKa_prospector']
2594,C[n+]1ccn(CC[NH+]2CCCCC2)c1C=NO,O,0,0,8.02,['8.02'],['pKa_prospector']
2595,C[n+]1ccn(CC[NH+]2CCOCC2)c1C=NO,O,0,0,8.24,['8.24'],['pKa_prospector']
2596,COCCn1cc[n+](C)c1C=NO,O,0,0,8.12,['8.12'],['pKa_prospector']
2597,C#CCOCCn1cc[n+](C)c1C=NO,O,0,0,8.12,['8.12'],['pKa_prospector']
2598,C[n+]1ccn(CCOCCBr)c1C=NO,O,0,0,8.13,['8.13'],['pKa_prospector']
2599,C[n+]1ccn(CCOCCCBr)c1C=NO,O,0,0,8.12,['8.12'],['pKa_prospector']
2600,C[n+]1ccn(CCOCCCCl)c1C=NO,O,0,0,8.11,['8.11'],['pKa_prospector']
2601,C[n+]1ccn(CCOCCCl)c1C=NO,O,0,0,8.15,['8.15'],['pKa_prospector']
2602,C[n+]1ccn(CCOCCS(C)(=O)=O)c1C=NO,O,0,0,8.12,['8.12'],['pKa_prospector']
2603,C[n+]1ccn(CCOCc2ccc([N+](=O)[O-])cc2)c1C=NO,O,0,0,8.17,['8.17'],['pKa_prospector']
2604,C[n+]1ccn(CCS(C)(=O)=O)c1C=NO,O,0,0,7.98,['7.98'],['pKa_prospector']
2605,C[n+]1ccn(CCc2ccc([N+](=O)[O-])cc2)c1C=NO,O,0,0,8.14,['8.14'],['pKa_prospector']
2606,COCn1cc[n+](C)c1C=NO,O,0,0,7.96,['7.96'],['pKa_prospector']
2607,C[n+]1ccn(COC(=O)c2ccc3c(c2)OCO3)c1C=NO,O,0,0,7.75,['7.75'],['pKa_prospector']
2608,C#CCC(OCn1cc[n+](C)c1C=NO)c1ccccc1,O,0,0,7.99,['7.99'],['pKa_prospector']
2609,C[n+]1ccn(COC(c2ccccc2)C2CCCC2)c1C=NO,O,0,0,8.03,['8.03'],['pKa_prospector']
2610,C#CC1(OCn2cc[n+](C)c2C=NO)CCCC1,O,0,0,7.97,['7.97'],['pKa_prospector']
2611,C[n+]1ccn(COC2CCC2)c1C=NO,O,0,0,7.99,['7.99'],['pKa_prospector']
2612,C[n+]1ccn(COC2CC=CCC2)c1C=NO,O,0,0,8,['8.00'],['pKa_prospector']
2613,C[n+]1ccn(COC2CCCC2)c1C=NO,O,0,0,8.04,['8.04'],['pKa_prospector']
2614,C#CC1CCCC1OCn1cc[n+](C)c1C=NO,O,0,0,8.01,['8.01'],['pKa_prospector']
2615,C[n+]1ccn(COC2CCCCC2)c1C=NO,O,0,0,8.01,['8.01'],['pKa_prospector']
2616,C#CC1CCCCC1OCn1cc[n+](C)c1C=NO,O,0,0,8.03,['8.03'],['pKa_prospector']
2617,C[n+]1ccn(COC2CCCCCC2)c1C=NO,O,0,0,8.03,['8.03'],['pKa_prospector']
2618,C[n+]1ccn(COC2CCCCCCC2)c1C=NO,O,0,0,8.03,['8.03'],['pKa_prospector']
2619,C[n+]1ccn(COC2CCCCCCCCCCC2)c1C=NO,O,0,0,8.03,['8.03'],['pKa_prospector']
2620,C#CCOCn1cc[n+](C)c1C=NO,O,0,0,8.01,['8.01'],['pKa_prospector']
2621,C[n+]1ccn(COCC2CC2)c1C=NO,O,0,0,8.01,['8.01'],['pKa_prospector']
2622,C[n+]1ccn(COCC2CCCC2)c1C=NO,O,0,0,7.97,['7.97'],['pKa_prospector']
2623,C[n+]1ccn(COCC2CCCCC2)c1C=NO,O,0,0,8.03,['8.03'],['pKa_prospector']
2624,C[n+]1ccn(COCC2CCCc3ccccc32)c1C=NO,O,0,0,8.13,['8.13'],['pKa_prospector']
2625,C=CCOCn1cc[n+](C)c1C=NO,O,0,0,8.04,['8.04'],['pKa_prospector']
2626,C=C=CCOCn1cc[n+](C)c1C=NO,O,0,0,8.03,['8.03'],['pKa_prospector']
2627,C[n+]1ccn(COCC=Cc2ccccc2)c1C=NO,O,0,0,8.01,['8.01'],['pKa_prospector']
2628,C#CCCOCn1cc[n+](C)c1C=NO,O,0,0,7.99,['7.99'],['pKa_prospector']
2629,C[n+]1ccn(COCCC#CBr)c1C=NO,O,0,0,8.02,['8.02'],['pKa_prospector']
2630,C=CCCOCn1cc[n+](C)c1C=NO,O,0,0,7.97,['7.97'],['pKa_prospector']
2631,C[n+]1ccn(COCCCBr)c1C=NO,O,0,0,8.02,['8.02'],['pKa_prospector']
2632,C#CCCCOCn1cc[n+](C)c1C=NO,O,0,0,8.2,['8.20'],['pKa_prospector']
2633,C[n+]1ccn(COCCCCc2ccccc2)c1C=NO,O,0,0,8.05,['8.05'],['pKa_prospector']
2634,C[n+]1ccn(COCCCCl)c1C=NO,O,0,0,7.93,['7.93'],['pKa_prospector']
2635,C[n+]1ccn(COCCCc2ccccc2)c1C=NO,O,0,0,8.05,['8.05'],['pKa_prospector']
2636,COCCOCn1cc[n+](C)c1C=NO,O,0,0,8.02,['8.02'],['pKa_prospector']
2637,C[n+]1ccn(COCCS(C)(=O)=O)c1C=NO,O,0,0,7.96,['7.96'],['pKa_prospector']
2638,C[n+]1ccn(COCCc2ccccc2C(F)(F)F)c1C=NO,O,0,0,8.13,['8.13'],['pKa_prospector']
2639,C[n+]1ccn(COCc2ccc(C(F)(F)F)cc2)c1C=NO,O,0,0,8.06,['8.06'],['pKa_prospector']
2640,C[n+]1ccn(COCc2ccc(F)cc2)c1C=NO,O,0,0,7.98,['7.98'],['pKa_prospector']
2641,C[n+]1ccn(COCc2cccc3ccccc23)c1C=NO,O,0,0,8.11,['8.11'],['pKa_prospector']
2642,C[n+]1ccn(COCc2ccccc2)c1C=NO,O,0,0,7.94,['7.94'],['pKa_prospector']
2643,C#CCCSCn1cc[n+](C)c1C=NO,O,0,0,7.99,['7.99'],['pKa_prospector']
2644,C[n+]1ccn(Cc2cccc([N+](=O)[O-])c2)c1C=NO,O,0,0,7.94,['7.94'],['pKa_prospector']
2645,Cc1nc2c(Cl)c(Cl)c(Cl)c(Cl)c2[nH]1,O,0,0,10.01,['10.01'],['pKa_prospector']
2646,Cc1nc2ccccc2[nH]1,O,0,0,6.19,['6.19'],['pKa_prospector']
2647,Cc1c(-c2ccccc2)oc2c(C(=O)OCC[NH+]3CCCCC3)cccc2c1=O,O,0,0,7.3,['7.30'],['pKa_prospector']
2648,Cc1nc2ccccc2n(C)c1=O,O,0,0,0.51,['0.51'],['pKa_prospector']