,Solute SMILES,Solvent SMILES,Solute CAS,Solute IUPAC,pKa (avg),pKa (all),Source
2920,Cc1ccc(NC(=O)[N-]S(=O)(=O)c2ccccc2)cc1,O,0,0,4.66,['4.66'],['pKa_prospector']
2921,Cc1ccc(NN=C(C#N)C#N)cc1,O,0,0,6.75,['6.75'],['pKa_prospector']
2922,Cc1ccc([N-]S(=O)(=O)c2ccc(N)cc2)cc1,O,0,0,9.5,['9.50'],['pKa_prospector']
2923,Cc1ccc(S(N)(=O)=O)cc1,O,0,0,10.2,['10.20'],['pKa_prospector']
2924,Cc1ccc(S(=O)(=O)N(C)C(=O)C[NH+]2CCOCC2)cc1,O,0,0,5,['5.00'],['pKa_prospector']
2925,Cc1ccc(S(=O)(=O)N2CC[NH2+]CC2)cc1,O,0,0,7.41,['7.41'],['pKa_prospector']
2926,CNS(=O)(=O)c1ccc(C)cc1,O,0,0,10.1,['10.10'],['pKa_prospector']
2927,Cc1ccc(S(=O)(=O)[N-]C(=O)NC2CCCCC2)cc1,O,0,0,5.5,['5.50'],['pKa_prospector']
2928,Cc1ccc(S(=O)(=O)[N-]C(=O)N[NH+]2CCCC2)cc1,O,0,0,5.95,['5.95'],['pKa_prospector']
2929,Cc1ccc(S(=O)(=O)[N-]C(=O)N[NH+]2CCCCC2)cc1,O,0,0,5.71,['5.71'],['pKa_prospector']
2930,Cc1ccc(S(=O)(=O)NCl)cc1,O,0,0,4.55,['4.55'],['pKa_prospector']
2931,Cc1ccc(S(=O)(=O)[N-]c2cccc3cccnc23)cc1,O,0,0,1.49,['1.49'],['pKa_prospector']
2932,Cc1ccc(S(=O)(=O)Oc2cc(S(=O)(=O)[O-])cc3ccc(O)cc23)cc1,O,0,0,9.6,['9.60'],['pKa_prospector']
2933,Cc1ccc(S(=O)(=O)Oc2ccc3cc(S(=O)(=O)[O-])cc(O)c3c2)cc1,O,0,0,8.7,['8.70'],['pKa_prospector']
2934,Cc1ccc(S(=O)(=O)c2csc(S(N)(=O)=O)c2)cc1,O,0,0,8.95,['8.95'],['pKa_prospector']
2935,Cc1ccc(S(=O)[O-])cc1,O,0,0,1.99,['1.99'],['pKa_prospector']
2936,Cc1ccc(-c2nnn[n-]2)cc1,O,0,0,4.82,['4.82'],['pKa_prospector']
2937,Cc1ccc(-c2ccccc2C(=O)[O-])cc1,O,0,0,3.78,['3.78'],['pKa_prospector']
2938,Cc1ccc(N)cc1Br,O,0,0,3.98,['3.98'],['pKa_prospector']
2939,Cc1ccc(C(=O)[N-]S(=O)(=O)c2ccc(N)cc2)cc1C,O,0,0,4.72,['4.72'],['pKa_prospector']
2940,Cc1ccc(C(=O)[O-])cc1C,O,0,0,4.41,['4.41'],['pKa_prospector']
2941,Cc1ccc(N)cc1Cl,O,0,0,4.05,['4.05'],['pKa_prospector']
2942,Cc1ccc(N)cc1[N+](=O)[O-],O,0,0,2.96,['2.96'],['pKa_prospector']
2943,Cc1ccc(Cl)cc1[NH+]=C1NCCN1,O,0,0,9.5,['9.50'],['pKa_prospector']
2944,Cc1ccc(Cl)cc1N=NC(=S)NNc1cc(Cl)ccc1C,O,0,0,5.2,['5.20'],['pKa_prospector']
2945,Cc1ccc(Cc2c[nH]c(NCCCCc3ccc(Br)cc3C)nc2=O)cn1,O,0,0,9.86,['9.86'],['pKa_prospector']
2946,Cc1ccc([N-]S(=O)(=O)c2ccc(N)cc2)nc1,O,0,0,8.8,['8.80'],['pKa_prospector']
2947,Cc1ccc2c(c1)C(c1ccccc1)=NCC(=O)N2,O,0,0,4.39,['4.39'],['pKa_prospector']
2948,Cc1ccc2c(c1)C(N1CC[NH+](CCO)CC1)CC2c1ccc(F)cc1,O,0,0,7.65,['7.65'],['pKa_prospector']
2949,Cc1ccc2c(c1)C(NC(=O)C[NH+]1CCCC1)CO2,O,0,0,8.1,['8.10'],['pKa_prospector']
2950,Cc1ccc2c(c1)C(NC(=O)C[NH+]1CCCCC1)CO2,O,0,0,7.7,['7.70'],['pKa_prospector']
2951,Cc1ccc2c(c1)C(NC(=O)C[NH+]1CCOCC1)CO2,O,0,0,5.2,['5.20'],['pKa_prospector']
2952,Cc1ccc2nccc(Cl)c2c1,O,0,0,3.96,['3.96'],['pKa_prospector']
2953,Cc1ccc2nc(C)ccc2c1,O,0,0,6.1,['6.10'],['pKa_prospector']
2954,Cc1ccc2ncccc2c1,O,0,0,5.22,['5.22'],['pKa_prospector']
2955,Cc1ccc2oc(N(N)CCC#N)nc2c1,O,0,0,3.09,['3.09'],['pKa_prospector']
2956,Cc1ccc2sc(N)nc2c1,O,0,0,4.6,['4.60'],['pKa_prospector']
2957,Cc1ccc2[nH]cnc2c1,O,0,0,5.78,['5.78'],['pKa_prospector']
2958,Cc1ccc2c(c1)ncn2C1OC(CO)C(O)C(O)C1O,O,0,0,4.29,['4.29'],['pKa_prospector']
2959,Cc1ccc2c(c1)ncn2C1OCC(O)C(O)C1O,O,0,0,4.22,['4.22'],['pKa_prospector']
2960,Cc1ccc2nc(N(N)CCC#N)oc2c1,O,0,0,3.07,['3.07'],['pKa_prospector']
2961,Cc1ccc2nc(N)sc2c1,O,0,0,4.6,['4.60'],['pKa_prospector']
2962,Cc1ccc2c(Cl)ccnc2c1,O,0,0,4,['4.00'],['pKa_prospector']
2963,Cc1ccc2ccc(C)nc2c1,O,0,0,5.02,['5.02'],['pKa_prospector']
2964,Cc1ccc2ccc3ccc(C)nc3c2n1,O,0,0,6,['6.00'],['pKa_prospector']
2965,Cc1ccc2ccc3cccnc3c2n1,O,0,0,5.42,['5.42'],['pKa_prospector']
2966,COc1cccc2ccc(C)nc12,O,0,0,5.7,['5.70'],['pKa_prospector']
2967,Cc1ccc2ccccc2c1C(=O)[O-],O,0,0,3.11,['3.11'],['pKa_prospector']
2968,Cc1ccc2ccccc2c1O,O,0,0,9.76,['9.76'],['pKa_prospector']
2969,Cc1ccc2ccccc2n1,O,0,0,5.71,['5.71'],['pKa_prospector']
2970,Cc1ccc2cccnc2c1,O,0,0,5.34,['5.34'],['pKa_prospector']
2971,Cc1ccc2nc(-c3ccccc3)cc(=O)n2c1,O,0,0,2.84,['2.84'],['pKa_prospector']
2972,Cc1ccc2nc3c(c(=O)n2c1)CCCC3,O,0,0,4.14,['4.14'],['pKa_prospector']
2973,Cc1ccc2nccc(=O)n2c1,O,0,0,3.52,['3.52'],['pKa_prospector']
2974,CC1=NN(c2ccccc2)C(=O)C1C(=O)c1cccc(C)c1,O,0,0,4.09,['4.09'],['pKa_prospector']
2975,Cc1cccc(C(=O)c2ccc3n2CCC3C(=O)[O-])c1,O,0,0,3.44,['3.44'],['pKa_prospector']
2976,Cc1cccc(C=CC(=O)[O-])c1,O,0,0,5.08,['5.08'],['pKa_prospector']
2977,Cc1cccc(CCC(=O)[O-])c1,O,0,0,5.22,['5.22'],['pKa_prospector']
2978,Cc1cccc(N(C)C)c1,O,0,0,5,['5.00'],['pKa_prospector']
2979,Cc1cccc(N=Nc2ccc(N)cc2)c1,O,0,0,2.88,['2.88'],['pKa_prospector']
2980,Cc1cccc(Nc2ccccc2C(=O)[O-])c1,O,0,0,4.99,['4.99'],['pKa_prospector']
2981,Cc1cccc(OCC(=O)[O-])c1,O,0,0,3.2,['3.20'],['pKa_prospector']
2982,Cc1cccc(OCC(O)C[NH2+]C(C)C)c1,O,0,0,8.6,['8.60'],['pKa_prospector']
2983,COc1ccc(CC[NH2+]CC(O)COc2cccc(C)c2)cc1OC,O,0,0,8.38,['8.38'],['pKa_prospector']
2984,Cc1cccc(-c2nnn[n-]2)c1,O,0,0,4.7,['4.70'],['pKa_prospector']
2985,Cc1cccc(-n2nnnc2N)c1,O,0,0,1.08,['1.08'],['pKa_prospector']
2986,Cc1cccc(C)c1C(=N)c1ccccc1,O,0,0,6.29,['6.29'],['pKa_prospector']
2987,Cc1cccc(C)c1C(=O)[O-],O,0,0,4.21,['4.21'],['pKa_prospector']
2988,Cc1cccc(C(=O)[O-])c1C,O,0,0,3.74,['3.74'],['pKa_prospector']
2989,Cc1cccc([NH+]=C2NCCN2)c1Cl,O,0,0,9.35,['9.35'],['pKa_prospector']
2990,Cc1cccc([O-])c1[N+](=O)[O-],O,0,0,7,['7.00'],['pKa_prospector']
2991,Cc1cccc(C)c1N(C(=O)C=Cc1ccccc1)C(C)C[NH+](C)C,O,0,0,8.5,['8.50'],['pKa_prospector']
2992,Cc1cccc(C)c1N(C(=O)CC1CCCCC1)C(C)C[NH+](C)C,O,0,0,8.49,['8.49'],['pKa_prospector']
2993,Cc1cccc(C)c1N(C)C,O,0,0,5.82,['5.82'],['pKa_prospector']
2994,Cc1cccc(Cl)c1N(CC1CC1)C1=[NH+]CCN1,O,0,0,11.3,['11.30'],['pKa_prospector']
2995,Cc1cccc(C)c1N(CCC[NH+](C)C)C(=O)C=Cc1ccccc1,O,0,0,8.51,['8.51'],['pKa_prospector']
2996,Cc1cccc(C)c1N(CCC[NH+](C)C)C(=O)CC1CCCCC1,O,0,0,8.5,['8.50'],['pKa_prospector']
2997,Cc1cccc(C)c1N(CCC[NH+](C)C)C(=O)Cc1ccccc1,O,0,0,8.5,['8.50'],['pKa_prospector']
2998,Cc1cccc(C)c1N(CCC[NH+]1CCCCC1)C(=O)Cc1ccccc1,O,0,0,8.78,['8.78'],['pKa_prospector']
2999,Cc1cccc(C)c1[NH+]=C1NCCN1,O,0,0,10.52,['10.52'],['pKa_prospector']
3000,Cc1cccc(Cl)c1[NH+]=C1NCCN1,O,0,0,9.45,['9.45'],['pKa_prospector']
3001,Cc1cccc(F)c1[NH+]=C1NCCN1,O,0,0,9.98,['9.98'],['pKa_prospector']
3002,Cc1cccc(C)c1NC(=O)C(C)[NH+](C)C,O,0,0,7.29,['7.29'],['pKa_prospector']
3003,Cc1cccc(C)c1NC(=O)C(C)[NH3+],O,0,0,7.64,['7.64'],['pKa_prospector']
3004,Cc1cccc(C)c1NC(=O)C1CCCC[NH+]1C,O,0,0,7.77,['7.77'],['pKa_prospector']
3005,Cc1cccc(C)c1NC(=O)C1CNCC[NH2+]1,O,0,0,7.98,['7.98'],['pKa_prospector']
3006,Cc1cccc(C)c1NC(=O)CC(C)[NH3+],O,0,0,8.71,['8.71'],['pKa_prospector']
3007,Cc1cccc(C)c1NC(=O)CCC(C)[NH3+],O,0,0,9.36,['9.36'],['pKa_prospector']
3008,Cc1cccc(C)c1NC(=O)CCCC(C)[NH3+],O,0,0,9.79,['9.79'],['pKa_prospector']
3009,Cc1cccc(C)c1NC(=O)CCCCC[NH3+],O,0,0,10.05,['10.05'],['pKa_prospector']
3010,Cc1cccc(C)c1NC(=O)CCCC[NH3+],O,0,0,9.81,['9.81'],['pKa_prospector']
3011,Cc1cccc(C)c1NC(=O)CCC[NH3+],O,0,0,9.35,['9.35'],['pKa_prospector']
3012,Cc1cccc(C)c1NC(=O)CC[NH3+],O,0,0,8.75,['8.75'],['pKa_prospector']
3013,Cc1cccc(C)c1NC(=O)C[NH+](C)C,O,0,0,7.29,['7.29'],['pKa_prospector']
3014,Cc1cccc(C)c1NC(=O)C[NH3+],O,0,0,7.59,['7.59'],['pKa_prospector']
3015,CNc1c(C)cccc1C,O,0,0,6.12,['6.12'],['pKa_prospector']
3016,Cc1cccc(C)c1NN=C(C#N)C#N,O,0,0,6.6,['6.60'],['pKa_prospector']
3017,Cc1cccc(C)c1Nc1ccccc1CC(=O)[O-],O,0,0,4.07,['4.07'],['pKa_prospector']
3018,Cc1cccc(Cl)c1Nc1ccccc1CC(=O)[O-],O,0,0,4.2,['4.20'],['pKa_prospector']
3019,Cc1cccc(C(N)=O)c1O,O,0,0,8.48,['8.48'],['pKa_prospector']
3020,Cc1cccc(C)c1OCC(=O)[O-],O,0,0,3.36,['3.36'],['pKa_prospector']
3021,Cc1cccc(C)c1OCC(C)[NH3+],O,0,0,8.86,['8.86'],['pKa_prospector']
3022,Cc1cccc(C(C)(C)C)n1,O,0,0,5.52,['5.52'],['pKa_prospector']
3023,Cc1cccc2[nH+]c3c(c(N)c12)CCCO3,O,0,0,8.06,['8.06'],['pKa_prospector']
3024,Cc1cccc2ncccc12,O,0,0,5.2,['5.20'],['pKa_prospector']
3025,Cc1cc2cccc(C)c2nc1C,O,0,0,4.42,['4.42'],['pKa_prospector']
3026,Cc1ccc2cccc(C)c2n1,O,0,0,4.11,['4.11'],['pKa_prospector']
3027,Cc1cc(C)c2cccc(C)c2n1,O,0,0,4.48,['4.48'],['pKa_prospector']
3028,Cc1cccc2sc(N)nc12,O,0,0,4.7,['4.70'],['pKa_prospector']
3029,Cc1cccc2cc3cccc(N)c3nc12,O,0,0,3.22,['3.22'],['pKa_prospector']
3030,Cc1cccc2cc3cccc(C)c3nc12,O,0,0,2.88,['2.88'],['pKa_prospector']
3031,Cc1cccc2c(N)c3ccccc3[nH+]c12,O,0,0,9.73,['9.73'],['pKa_prospector']
3032,Cc1cccc2[nH]cnc12,O,0,0,5.65,['5.65'],['pKa_prospector']
3033,Cc1cccc2cccnc12,O,0,0,5.05,['5.05'],['pKa_prospector']
3034,Cc1cccc2nc(N(N)CCC#N)oc12,O,0,0,3.14,['3.14'],['pKa_prospector']
3035,Cc1cccc2nc(N)sc12,O,0,0,4.25,['4.25'],['pKa_prospector']
3036,Cc1cnc2cccc(C)n2c1=O,O,0,0,4.42,['4.42'],['pKa_prospector']
3037,Cc1cccc2ncc(-c3ccccc3)c(=O)n12,O,0,0,3.71,['3.71'],['pKa_prospector']
3038,Cc1cccc2nc3c(c(=O)n12)CCCC3,O,0,0,4.43,['4.43'],['pKa_prospector']
3039,Cc1cc(=O)n2c(C)cccc2n1,O,0,0,4.43,['4.43'],['pKa_prospector']
3040,Cc1cccc2nc(-c3ccccc3)cc(=O)n12,O,0,0,3.29,['3.29'],['pKa_prospector']
3041,Cc1cccc2nccc(=O)n12,O,0,0,4.23,['4.23'],['pKa_prospector']
3042,Cc1ccccc1C(=N)c1ccccc1,O,0,0,6.79,['6.79'],['pKa_prospector']
3043,Cc1ccccc1C(N)=[NH+]O,O,0,0,3.99,['3.99'],['pKa_prospector']
3044,CC1=NN(c2ccccc2)C(=O)C1C(=O)c1ccccc1C,O,0,0,3.58,['3.58'],['pKa_prospector']
3045,Cc1ccccc1C(=O)c1ccc2n1CCC2C(=O)[O-],O,0,0,3.44,['3.44'],['pKa_prospector']
3046,Cc1ccccc1C(OCC[NH+](C)C)c1ccccc1,O,0,0,8.4,['8.40'],['pKa_prospector']
3047,Cc1ccccc1C12CCC[NH+]1CCO2,O,0,0,10.34,['10.34'],['pKa_prospector']
3048,Cc1ccccc1C1=NCC(=O)N(C)c2ccc(Cl)cc21,O,0,0,2.93,['2.93'],['pKa_prospector']
3049,Cc1ccccc1C1=NCC(=O)Nc2ccc(Cl)cc21,O,0,0,3.14,['3.14'],['pKa_prospector']
3050,Cc1ccccc1C=CC(=O)[O-],O,0,0,4.61,['4.61'],['pKa_prospector']
3051,Cc1ccccc1C=Cc1ccc(N(C)C)cc1,O,0,0,4.67,['4.67'],['pKa_prospector']
3052,Cc1ccccc1CC(=O)[O-],O,0,0,4.35,['4.35'],['pKa_prospector']
3053,Cc1ccccc1CCC(=O)[O-],O,0,0,4.66,['4.66'],['pKa_prospector']
3054,Cc1ccccc1N(C)C,O,0,0,5.71,['5.71'],['pKa_prospector']
3055,Cc1ccccc1N1C(=O)c2cc(S(N)(=O)=O)c(Cl)cc2NC1C,O,0,0,9.7,['9.70'],['pKa_prospector']
3056,Cc1ccccc1N1CC[NH2+]CC1,O,0,0,9.28,['9.28'],['pKa_prospector']
3057,Cc1ccccc1[NH+]=C1NCCN1,O,0,0,10.23,['10.23'],['pKa_prospector']
3058,Cc1ccccc1NC(=O)C1CN(C)CC[NH+]1C,O,0,0,6.85,['6.85'],['pKa_prospector']
3059,Cc1ccccc1NC(=O)C1CNCC[NH2+]1,O,0,0,8.12,['8.12'],['pKa_prospector']
3060,Cc1ccccc1NC(C)(C)C,O,0,0,6.49,['6.49'],['pKa_prospector']
3061,Cc1ccccc1NC1CCCC1,O,0,0,5.07,['5.07'],['pKa_prospector']
3062,Cc1ccccc1NC1CCCCC1,O,0,0,5.34,['5.34'],['pKa_prospector']
3063,Cc1ccccc1NCCO,O,0,0,4.18,['4.18'],['pKa_prospector']
3064,Cc1ccccc1NN=C(C#N)C#N,O,0,0,6.9,['6.90'],['pKa_prospector']
3065,Cc1ccccc1OCC(=O)[O-],O,0,0,3.23,['3.23'],['pKa_prospector']
3066,Cc1ccccc1OCC(O)C[NH2+]CC(O)COc1ccccc1C,O,0,0,8.15,['8.15'],['pKa_prospector']
3067,Cc1ccccc1OCC(O)C[NH2+]CCOc1ccc(C(N)=O)cc1,O,0,0,9.2,['9.20'],['pKa_prospector']
3068,Cc1ccccc1S(=O)(=O)N1C(=O)[N-]C(=O)C1(c1ccccc1)c1ccccc1,O,0,0,5.12,['5.12'],['pKa_prospector']
3069,Cc1ccccc1-c1nnn[n-]1,O,0,0,4.82,['4.82'],['pKa_prospector']
3070,Cc1ccccc1-n1c(C)nc2ccccc2c1=O,O,0,0,2.54,['2.54'],['pKa_prospector']
3071,Cc1ccccc1-n1nnnc1N,O,0,0,1.23,['1.23'],['pKa_prospector']
3072,Cc1cc(=O)n2cccc(C)c2n1,O,0,0,3.47,['3.47'],['pKa_prospector']
3073,Cc1cccn2c(=O)c3c(nc12)CCCC3,O,0,0,4.03,['4.03'],['pKa_prospector']
3074,Cc1cccn2c(=O)ccnc12,O,0,0,3.21,['3.21'],['pKa_prospector']
3075,Cc1cccnc1[N-]S(=O)(=O)c1ccc(N)cc1,O,0,0,8.7,['8.70'],['pKa_prospector']
3076,Cc1ccn2c(=O)ccnc2c1,O,0,0,3.78,['3.78'],['pKa_prospector']
3077,Cc1ccn2c(=O)cc(-c3ccccc3)nc2c1,O,0,0,3.11,['3.11'],['pKa_prospector']
3078,Cc1ccn2c(=O)c3c(nc2c1)CCCC3,O,0,0,4.57,['4.57'],['pKa_prospector']
3079,Cc1ccnc(-c2cc(C)ccn2)c1,O,0,0,5.32,['5.32'],['pKa_prospector']
3080,CSc1nccc(C)n1,O,0,0,1.86,['1.86'],['pKa_prospector']
3081,Cc1cnc2c(cc(C)c3c(C)ccnc32)c1C,O,0,0,6.43,['6.43'],['pKa_prospector']
3082,Cc1cnc2c(c1)c(C)cc1c(C)ccnc12,O,0,0,5.88,['5.88'],['pKa_prospector']
3083,Cc1cc2c(C)ccnc2c2ncccc12,O,0,0,5.69,['5.69'],['pKa_prospector']
3084,Cc1cnc2c(ccc3c(C)ccnc32)c1,O,0,0,5.55,['5.55'],['pKa_prospector']
3085,Cc1cnc2c(ccc3c(C)ccnc32)c1C,O,0,0,5.97,['5.97'],['pKa_prospector']
3086,Cc1ccnc2c1ccc1c(C)ccnc12,O,0,0,5.94,['5.94'],['pKa_prospector']
3087,Cc1ccnc2ccccc12,O,0,0,5.67,['5.67'],['pKa_prospector']
3088,Cc1ccsc1C12CCC[NH+]1CCO2,O,0,0,9.5,['9.50'],['pKa_prospector']
3089,Cc1cn(C)c(=O)nc1N,O,0,0,4.69,['4.69'],['pKa_prospector']
3090,Cc1cn(C2OC(CO)C(O)C2O)c(=O)nc1N,O,0,0,4.15,['4.15'],['pKa_prospector']
3091,Cc1cn(C2CC(O)C(CO)O2)c(=O)nc1N,O,0,0,4.33,['4.33'],['pKa_prospector']
3092,Cc1cnc(=NO)sc1C,O,0,0,10.6,['10.60'],['pKa_prospector']
3093,Cc1c[nH+]c(Cc2ccc(OCC(O)C[NH2+]C(C)(C)C)cc2)[nH]1,O,0,0,9.15,['9.15'],['pKa_prospector']
3094,COc1ccc(CC[NH2+]CC(O)COc2ccc(Cc3[nH]c(C)c[nH+]3)cc2)cc1OC,O,0,0,8.32,['8.32'],['pKa_prospector']
3095,Cc1cnc(C(=O)NCCc2ccc(S(=O)(=O)[N-]C(=O)NC3CCCCC3)cc2)cn1,O,0,0,5.9,['5.90'],['pKa_prospector']
3096,Cc1c[nH+]c([N+](=O)[O-])n1CC(=O)Nc1ncccn1,O,0,0,0.96,['0.96'],['pKa_prospector']
3097,Cc1cnc([N-]S(=O)(=O)c2ccc(N)cc2)nc1,O,0,0,6.71,['6.71'],['pKa_prospector']
3098,Cc1cnc([N-]S(=O)(=O)c2ccccc2)nc1,O,0,0,6.15,['6.15'],['pKa_prospector']
3099,Cc1cnc2c(ccc3c(C)c(C)cnc32)c1C,O,0,0,6.04,['6.04'],['pKa_prospector']
3100,Cc1cnc2c(ccc3cccnc32)c1C,O,0,0,5.6,['5.60'],['pKa_prospector']
3101,Cc1cnc2nc(N)nc(C)c2n1,O,0,0,2.66,['2.66'],['pKa_prospector']
3102,Cc1cnc2nc(N)ncc2n1,O,0,0,4.03,['4.03'],['pKa_prospector']
3103,Cc1cnc2c(C)nc(N)nc2n1,O,0,0,2.59,['2.59'],['pKa_prospector']
3104,Cc1cnc2ccccc2n1,O,0,0,0.95,['0.95'],['pKa_prospector']
3105,Cc1cnc2ccccn2c1=O,O,0,0,3.7,['3.70'],['pKa_prospector']
3106,Cc1cnc2cnc(N)nc2n1,O,0,0,3.73,['3.73'],['pKa_prospector']
3107,Cc1cnc2n(c1=O)C(C)CCC2,O,0,0,3.8,['3.80'],['pKa_prospector']
3108,Cc1cnc2n(c1=O)CCCC2,O,0,0,3.92,['3.92'],['pKa_prospector']
3109,Cc1c[nH+]cc(C)c1N(C)C,O,0,0,8.12,['8.12'],['pKa_prospector']
3110,CNc1c(C)c[nH+]cc1C,O,0,0,9.96,['9.96'],['pKa_prospector']
3111,Cc1c[nH+]ccc1N(C)C,O,0,0,8.69,['8.69'],['pKa_prospector']
3112,Cc1csc(C(c2ccc(O)cc2)c2ccc(O)cc2)n1,O,0,0,9.29,['9.29'],['pKa_prospector']
3113,Cc1csc(Cc2ccc(O)cc2)n1,O,0,0,9.79,['9.79'],['pKa_prospector']
3114,Cc1csc([NH+]=C(N)N)n1,O,0,0,7.05,['7.05'],['pKa_prospector']
3115,Cc1n[nH]c(N[N+](=O)[O-])n1,O,0,0,4.8,['4.80'],['pKa_prospector']
3116,Cc1nc(N)c2nccnc2n1,O,0,0,4.28,['4.28'],['pKa_prospector']
3117,Cc1nc(N)c2ncsc2n1,O,0,0,3.54,['3.54'],['pKa_prospector']
3118,Cc1nc(N)c2cnn(C)c2n1,O,0,0,4.96,['4.96'],['pKa_prospector']
3119,CNc1nc(C)nc2c1cnn2C,O,0,0,4.96,['4.96'],['pKa_prospector']
3120,Cc1nc(N)c2cnn(-c3ccccc3)c2n1,O,0,0,4.48,['4.48'],['pKa_prospector']
3121,COc1cc([N-]S(=O)(=O)c2ccc(N)cc2)nc(C)n1,O,0,0,7.06,['7.06'],['pKa_prospector']
3122,Cc1nc(C(c2ccc(O)cc2)c2ccc(O)cc2)cs1,O,0,0,9.57,['9.57'],['pKa_prospector']
3123,COC(=O)c1ccccc1S(=O)(=O)[N-]C(=O)Nc1nc(C)nc(OC)n1,O,0,0,3.3,['3.30'],['pKa_prospector']
3124,COc1nc(C)nc(NC(=O)[N-]S(=O)(=O)c2ccccc2Cl)n1,O,0,0,3.6,['3.60'],['pKa_prospector']
3125,COC(=O)c1sccc1S(=O)(=O)[N-]C(=O)Nc1nc(C)nc(OC)n1,O,0,0,4,['4.00'],['pKa_prospector']
3126,Cc1nsc(C=NO)n1,O,0,0,6.97,['6.97'],['pKa_prospector']
3127,CNc1nc(C)nc2nc[nH]c12,O,0,0,5.04,['5.04'],['pKa_prospector']
3128,Cc1nc(NCc2ccco2)c2cn[nH]c2n1,O,0,0,4.61,['4.61'],['pKa_prospector']
3129,Cc1nc2cc([N+](=O)[O-])ccc2n1C,O,0,0,4.4,['4.40'],['pKa_prospector']
3130,Cc1nc2ccc([N+](=O)[O-])cc2n1C,O,0,0,4.2,['4.20'],['pKa_prospector']
3131,Cc1nc2ccccc2n1C,O,0,0,6.55,['6.55'],['pKa_prospector']
3132,Cc1nc2ccccc2n1CCC#N,O,0,0,5.7,['5.70'],['pKa_prospector']
3133,Cc1nc2ccccc2o1,O,0,0,0.69,['0.69'],['pKa_prospector']
3134,Cc1[nH+]cc([N+](=O)[O-])n1C,O,0,0,2.9,['2.90'],['pKa_prospector']
3135,Cc1[nH+]cc([N+](=O)[O-])n1CC(=O)N1C=CN(C(=O)Cn2c([N+](=O)[O-])c[nH+]c2C)C=C1,O,0,0,1,['1.00'],['pKa_prospector']
3136,Cc1[nH+]cc([N+](=O)[O-])n1CC(O)CCl,O,0,0,2.27,['2.27'],['pKa_prospector']
3137,Cc1[nH+]cc([N+](=O)[O-])n1CC(O)CO,O,0,0,2.95,['2.95'],['pKa_prospector']
3138,Cc1[nH+]cc([N+](=O)[O-])n1CC(O)Cn1c([N+](=O)[O-])c[nH+]c1C,O,0,0,2.19,['2.19'],['pKa_prospector']
3139,COC(=S)NCCn1c([N+](=O)[O-])c[nH+]c1C,O,0,0,2.08,['2.08'],['pKa_prospector']
3140,Cc1[nH+]cc([N+](=O)[O-])n1CCO,O,0,0,2.44,['2.44'],['pKa_prospector']
3141,Cc1[nH+]cc([N+](=O)[O-])n1CCS(C)(=O)=O,O,0,0,2.04,['2.04'],['pKa_prospector']
3142,Cc1ncc2nccnc2n1,O,0,0,4.8,['4.80'],['pKa_prospector']
3143,Cc1ncc2cnn(C)c2n1,O,0,0,3.23,['3.23'],['pKa_prospector']
3144,Cc1nnc(C=NO)s1,O,0,0,8.4,['8.40'],['pKa_prospector']
3145,Cc1nnc(SCC2=C(C(=O)[O-])N3C(=O)C(NC(=O)Cn4cnnn4)C3SC2)s1,O,0,0,2.1,['2.10'],['pKa_prospector']
3146,Cn1c(N)nc(Cl)cc1=N,O,0,0,9.87,['9.87'],['pKa_prospector']
3147,Cn1nc(S(N)(=O)=O)sc1=NC(=O)C(Cl)(Cl)Cl,O,0,0,7.05,['7.05'],['pKa_prospector']
3148,Cn1nc(S(N)(=O)=O)sc1=NC(=O)[C-](Cl)Cl,O,0,0,7.1,['7.10'],['pKa_prospector']
3149,Cn1nc(S(N)(=O)=O)sc1=NC(=O)C(F)(F)F,O,0,0,6.6,['6.60'],['pKa_prospector']
3150,Cn1nc(S(N)(=O)=O)sc1=NC(=O)CCl,O,0,0,7.25,['7.25'],['pKa_prospector']
3151,Cn1nc(S(N)(=O)=O)sc1=NC(=O)c1ccccc1,O,0,0,7.4,['7.40'],['pKa_prospector']
3152,Cn1c(N)nc2nccnc2c1=O,O,0,0,2.21,['2.21'],['pKa_prospector']
3153,Cn1ncc2ccccc2c1=O,O,0,0,-4.3,['-4.30'],['pKa_prospector']
3154,Cn1c(=O)cnc2cnc(N)nc21,O,0,0,2.05,['2.05'],['pKa_prospector']
3155,Cn1c(=O)cnc2cncnc21,O,0,0,1.1,['1.10'],['pKa_prospector']
3156,Cn1c(=O)nc2sc(S(N)(=O)=O)nn2c1=O,O,0,0,7.3,['7.30'],['pKa_prospector']
3157,Cn1ncc2ccccc2c1=S,O,0,0,-3.98,['-3.98'],['pKa_prospector']
3158,Cn1c(N)cc(=N)nc1N,O,0,0,12.7,['12.70'],['pKa_prospector']
3159,COc1ccccc1N1CC[NH+](CCCNc2cc(=O)n(C)c(=O)n2C)CC1,O,0,0,7.1,['7.10'],['pKa_prospector']
3160,Cn1c([N+](=O)[O-])c[nH+]c1C1CC1,O,0,0,2.56,['2.56'],['pKa_prospector']
3161,Cn1c([N+](=O)[O-])c[nH+]c1C=C(Oc1ccccc1)C(=O)[O-],O,0,0,3.81,['3.81'],['pKa_prospector']
3162,Cn1c([N+](=O)[O-])c[nH+]c1C=O,O,0,0,1.6,['1.60'],['pKa_prospector']
3163,Cn1c([N+](=O)[O-])c[nH+]c1CN1CC[NH+](C)CC1,O,0,0,7.6,['7.60'],['pKa_prospector']
3164,Cn1c([N+](=O)[O-])c[nH+]c1CO,O,0,0,2.04,['2.04'],['pKa_prospector']
3165,Cn1c([N+](=O)[O-])c[nH+]c1COC(N)=O,O,0,0,1.41,['1.41'],['pKa_prospector']
3166,Cn1c(=O)c2c(nc(CCCN3CC[NH+](C(c4ccccc4)c4ccccc4)CC3)n2C)n(C)c1=O,O,0,0,6.1,['6.10'],['pKa_prospector']
3167,Cn1c(=O)c2c(nc(CCCN3CC[NH+](C(c4ccccc4)c4ccccc4)CC3)n2C)n(-c2ccccc2)c1=O,O,0,0,6.8,['6.80'],['pKa_prospector']
3168,Cn1c(=O)c2[nH]c(CCCN3CC[NH+](C(c4ccccc4)c4ccccc4)CC3)nc2n(C)c1=O,O,0,0,6.6,['6.60'],['pKa_prospector']
3169,Cn1c(=O)c2[nH]c(CCN3CC[NH+](C(c4ccccc4)c4ccccc4)CC3)nc2n(C)c1=O,O,0,0,5.6,['5.60'],['pKa_prospector']
3170,Cn1c(=O)c2[nH]c(CN3CC[NH+](C(c4ccccc4)c4ccccc4)CC3)nc2n(C)c1=O,O,0,0,5.3,['5.30'],['pKa_prospector']
3171,Cn1c(=O)c2[nH]c(Cl)nc2n(C)c1=O,O,0,0,8.2,['8.20'],['pKa_prospector']
3172,Cn1c(=O)c2nccnc2n(C)c1=O,O,0,0,-2.7,['-2.70'],['pKa_prospector']
3173,Cn1c(N)nc(=O)c2nccnc21,O,0,0,2.8,['2.80'],['pKa_prospector']
3174,Cn1ncc2c(N)nc(Cl)nc21,O,0,0,2.65,['2.65'],['pKa_prospector']
3175,COc1nc(N)c2cnn(C)c2n1,O,0,0,3.62,['3.62'],['pKa_prospector']
3176,Cn1ncc2c(N)ncnc21,O,0,0,4.28,['4.28'],['pKa_prospector']
3177,CN(C)c1ncnc2c1cnn2C,O,0,0,4.02,['4.02'],['pKa_prospector']
3178,Cn1ncc2c(NCCO)ncnc21,O,0,0,3.82,['3.82'],['pKa_prospector']
3179,Cn1ncc2c(NCc3ccccc3)ncnc21,O,0,0,3.62,['3.62'],['pKa_prospector']
3180,Cn1ncc2c(NCc3ccco3)ncnc21,O,0,0,3.76,['3.76'],['pKa_prospector']
3181,Cn1ncc2c(Nc3ccccc3)ncnc21,O,0,0,3.49,['3.49'],['pKa_prospector']
3182,COc1ncnc2c1cnn2C,O,0,0,2.47,['2.47'],['pKa_prospector']
3183,Cn1c(=O)ncc2nccnc21,O,0,0,11.46,['11.46'],['pKa_prospector']
3184,Cn1ncc2cncnc21,O,0,0,2.46,['2.46'],['pKa_prospector']
3185,Cn1c([S-])nc2cncnc21,O,0,0,7.5,['7.50'],['pKa_prospector']
3186,CSc1nc2cncnc2n1C,O,0,0,2.95,['2.95'],['pKa_prospector']
3187,Cn1ncc(=O)c2ccccc21,O,0,0,0.91,['0.91'],['pKa_prospector']
3188,Cn1ncc(=S)c2ccccc21,O,0,0,-0.8,['-0.80'],['pKa_prospector']
3189,Cn1c(N)cc2ccccc21,O,0,0,9.6,['9.60'],['pKa_prospector']
3190,Cn1c(=O)ccc2ccccc21,O,0,0,-0.71,['-0.71'],['pKa_prospector']
3191,Cn1c(=S)ccc2ccccc21,O,0,0,-1.6,['-1.60'],['pKa_prospector']
3192,Cn1c2cccc(=O)c-2nc2ccccc21,O,0,0,4.58,['4.58'],['pKa_prospector']
3193,Cn1c2cc(=O)ccc-2nc2ccccc21,O,0,0,3.05,['3.05'],['pKa_prospector']