,Solute SMILES,Solvent SMILES,Solute CAS,Solute IUPAC,pKa (avg),pKa (all),Source
4551,Nc1cccc2ccccc12,O,0,0,3.66,['3.66'],['pKa_prospector']
4552,O=C([O-])c1ccccc1C(=O)Nc1cccc2ccccc12,O,0,0,3,['3.00'],['pKa_prospector']
4553,O=C([O-])c1ccccc1Nc1cccc2ccccc12,O,0,0,6.4,['6.40'],['pKa_prospector']
4554,Oc1cccc2ccccc12,O,0,0,9.3,['9.30'],['pKa_prospector']
4555,O=C([O-])COc1cccc2ccccc12,O,0,0,3.2,['3.20'],['pKa_prospector']
4556,O=C([O-])CCOc1cccc2ccccc12,O,0,0,4,['4.00'],['pKa_prospector']
4557,O=S(=O)([O-])c1cccc2ccccc12,O,0,0,0.68,['0.68'],['pKa_prospector']
4558,Nc1nccc2ccccc12,O,0,0,7.59,['7.59'],['pKa_prospector']
4559,Oc1nccc2ccccc12,O,0,0,-1.2,['-1.20'],['pKa_prospector']
4560,c1ccc2nnccc2c1,O,0,0,2.27,['2.27'],['pKa_prospector']
4561,Clc1ncc2ccccc2n1,O,0,0,-1.6,['-1.60'],['pKa_prospector']
4562,Nc1ncc2ccccc2n1,O,0,0,4.81,['4.81'],['pKa_prospector']
4563,c1ccc2c(c1)cnc1ccccc12,O,0,0,4.46,['4.46'],['pKa_prospector']
4564,Brc1cncc2ccccc12,O,0,0,3.31,['3.31'],['pKa_prospector']
4565,Nc1cncc2ccccc12,O,0,0,6.26,['6.26'],['pKa_prospector']
4566,O=[N+]([O-])c1cncc2ccccc12,O,0,0,1.35,['1.35'],['pKa_prospector']
4567,Nc1nncc2ccccc12,O,0,0,6.57,['6.57'],['pKa_prospector']
4568,Nc1nc2ccccc2nc1N,O,0,0,4.68,['4.68'],['pKa_prospector']
4569,Nc1nc2ccccc2o1,O,0,0,3.7,['3.70'],['pKa_prospector']
4570,N#CCCN(N)c1nc2ccccc2o1,O,0,0,2.89,['2.89'],['pKa_prospector']
4571,Nc1nc2ccccc2s1,O,0,0,4.48,['4.48'],['pKa_prospector']
4572,NS(=O)(=O)c1nc2ccccc2s1,O,0,0,7.9,['7.90'],['pKa_prospector']
4573,N=c1cc2n(-c3ccc(Cl)cc3)c3ccccc3nc-2cc1Nc1ccc(Cl)cc1,O,0,0,8.48,['8.48'],['pKa_prospector']
4574,Clc1ccc(Nc2cc3nc4ccccc4n(-c4ccc(Cl)cc4)c-3cc2=NCC2CC[NH2+]CC2)cc1,O,0,0,8.09,['8.09'],['pKa_prospector']
4575,Clc1ccc(Nc2cc3nc4ccccc4n(-c4ccc(Cl)cc4)c-3cc2=NCCC[NH+]2CCCC2)cc1,O,0,0,8.6,['8.60'],['pKa_prospector']
4576,Nc1ccc2nc3ccccc3nc2c1,O,0,0,4.71,['4.71'],['pKa_prospector']
4577,NC(=O)c1cnc2ccccc2n1,O,0,0,-0.4,['-0.40'],['pKa_prospector']
4578,Nc1cnc2ccccc2n1,O,0,0,3.93,['3.93'],['pKa_prospector']
4579,c1ccc2nccnc2c1,O,0,0,0.56,['0.56'],['pKa_prospector']
4580,OCC1OC(n2cnc3ccccc32)C(O)C(O)C1O,O,0,0,3.97,['3.97'],['pKa_prospector']
4581,OC1COC(n2cnc3ccccc32)C(O)C1O,O,0,0,4.05,['4.05'],['pKa_prospector']
4582,N#CCCn1cnc2ccccc21,O,0,0,4.3,['4.30'],['pKa_prospector']
4583,OCCn1cnc2ccccc21,O,0,0,5.26,['5.26'],['pKa_prospector']
4584,OCn1cnc2ccccc21,O,0,0,5.41,['5.41'],['pKa_prospector']
4585,c1ccc2nncnc2c1,O,0,0,-0.82,['-0.82'],['pKa_prospector']
4586,Nc1cc2ccccc2cc1[N+](=O)[O-],O,0,0,1.48,['1.48'],['pKa_prospector']
4587,Nc1cc2ccccc2cc1O,O,0,0,9.3,['9.30'],['pKa_prospector']
4588,O=C([O-])CCC(=O)c1ccc2ccccc2c1,O,0,0,4.96,['4.96'],['pKa_prospector']
4589,O=C([O-])c1ccc2ccccc2c1,O,0,0,4.92,['4.92'],['pKa_prospector']
4590,O=C(c1ccc2ccccc2c1)c1ccc2n1CCC2C(=O)[O-],O,0,0,3.44,['3.44'],['pKa_prospector']
4591,O=C([O-])Cc1ccc2ccccc2c1,O,0,0,4.26,['4.26'],['pKa_prospector']
4592,Nc1ccc2ccccc2c1,O,0,0,3.96,['3.96'],['pKa_prospector']
4593,O=C(CS)Nc1ccc2ccccc2c1,O,0,0,0.9,['0.90'],['pKa_prospector']
4594,Oc1ccc2ccccc2c1,O,0,0,9.57,['9.57'],['pKa_prospector']
4595,O=C([O-])COc1ccc2ccccc2c1,O,0,0,3.2,['3.20'],['pKa_prospector']
4596,Nc1nc2cc3ccccc3cc2[nH]1,O,0,0,6.99,['6.99'],['pKa_prospector']
4597,Oc1nc2cc3ccccc3cc2[nH]1,O,0,0,11.66,['11.66'],['pKa_prospector']
4598,Nc1cnc2cc3ccccc3cc2c1,O,0,0,4.74,['4.74'],['pKa_prospector']
4599,c1ccc2cc3ncncc3cc2c1,O,0,0,5.2,['5.20'],['pKa_prospector']
4600,O=C([O-])c1cccc2cc3ccccc3cc12,O,0,0,3.68,['3.68'],['pKa_prospector']
4601,Nc1cccc2cc3ccccc3cc12,O,0,0,3.66,['3.66'],['pKa_prospector']
4602,c1ccc2cc3ncccc3cc2c1,O,0,0,5.01,['5.01'],['pKa_prospector']
4603,O=C([O-])c1ccc2cc3ccccc3cc2c1,O,0,0,4.18,['4.18'],['pKa_prospector']
4604,Nc1ccc2cc3ccccc3cc2c1,O,0,0,3.4,['3.40'],['pKa_prospector']
4605,Nc1cc2ccccc2cn1,O,0,0,5.03,['5.03'],['pKa_prospector']
4606,c1ccc2cnncc2c1,O,0,0,3.47,['3.47'],['pKa_prospector']
4607,O=c1c2c(nc3ccccn13)CCC2,O,0,0,3.27,['3.27'],['pKa_prospector']
4608,O=c1c2c(nc3ccccn13)CCCC2,O,0,0,4.11,['4.11'],['pKa_prospector']
4609,O=c1ccnc2ccccn12,O,0,0,3.22,['3.22'],['pKa_prospector']
4610,Oc1ccc(C(c2ccc(O)cc2)c2ccccn2)cc1,O,0,0,9.6,['9.60'],['pKa_prospector']
4611,O=C1C(c2ccccn2)=C([O-])c2ccc(Cl)cc21,O,0,0,9.98,['9.98'],['pKa_prospector']
4612,O=C1C(c2ccccn2)=C([O-])c2ccc([N+](=O)[O-])cc21,O,0,0,9.26,['9.26'],['pKa_prospector']
4613,c1ccc(C2=[NH+]CCN2)nc1,O,0,0,8.98,['8.98'],['pKa_prospector']
4614,O=C1c2ccc(Cl)cc2C(=O)C1c1ccccn1,O,0,0,9.98,['9.98'],['pKa_prospector']
4615,[NH3+]CCCCCc1ccccn1,O,0,0,10.38,['10.38'],['pKa_prospector']
4616,[NH3+]CCCCc1ccccn1,O,0,0,10.3,['10.30'],['pKa_prospector']
4617,[NH3+]CCCc1ccccn1,O,0,0,10.1,['10.10'],['pKa_prospector']
4618,Ic1ccccn1,O,0,0,1.82,['1.82'],['pKa_prospector']
4619,c1ccc(N2CC[NH2+]CC2)nc1,O,0,0,8.9,['8.90'],['pKa_prospector']
4620,c1ccc(-c2c[nH]cn2)nc1,O,0,0,5.42,['5.42'],['pKa_prospector']
4621,Nc1ccn(C2OC(CO)C(O)C2CO)c(=O)n1,O,0,0,3.78,['3.78'],['pKa_prospector']
4622,Nc1ccn(C2CC(O)C(CO)O2)c(=O)n1,O,0,0,4.25,['4.25'],['pKa_prospector']
4623,O=[N+]([O-])c1nccn1CC(O)C[NH+]1CCCCC1,O,0,0,8.8,['8.80'],['pKa_prospector']
4624,N=c1ccn2c(n1)OC1C(O)C(CO)OC12,O,0,0,9.42,['9.42'],['pKa_prospector']
4625,Nc1nccnc1C(=O)[O-],O,0,0,3.7,['3.70'],['pKa_prospector']
4626,O=C(NO)c1ncccn1,O,0,0,7.88,['7.88'],['pKa_prospector']
4627,c1cnc(N2CC[NH2+]CC2)nc1,O,0,0,8.91,['8.91'],['pKa_prospector']
4628,NN=c1nc[nH]c2nccnc12,O,0,0,3.98,['3.98'],['pKa_prospector']
4629,Nc1nc(N)c2nccnc2n1,O,0,0,5.3,['5.30'],['pKa_prospector']
4630,Nc1ncnc2nccnc12,O,0,0,3.54,['3.54'],['pKa_prospector']
4631,NNc1ncnc2nccnc12,O,0,0,3.98,['3.98'],['pKa_prospector']
4632,Nc1ncc2nccnc2n1,O,0,0,4.26,['4.26'],['pKa_prospector']
4633,Oc1ncc2nccnc2n1,O,0,0,7.7,['7.70'],['pKa_prospector']
4634,c1cnc2ncncc2n1,O,0,0,4.05,['4.05'],['pKa_prospector']
4635,c1cnc2nccnc2n1,O,0,0,2.47,['2.47'],['pKa_prospector']
4636,O=c1ccnc2n1CCCC2,O,0,0,3.35,['3.35'],['pKa_prospector']
4637,Nc1cc[nH+]cc1Br,O,0,0,7.05,['7.05'],['pKa_prospector']
4638,Nc1cc[nH+]cc1N=CC=O,O,0,0,8.53,['8.53'],['pKa_prospector']
4639,Nc1c[nH+]ccc1N=CC=O,O,0,0,4.52,['4.52'],['pKa_prospector']
4640,Nc1c2c([nH+]c3cnccc13)CCCC2,O,0,0,7.3,['7.30'],['pKa_prospector']
4641,Nc1c2c([nH+]c3cnccc13)OCCC2,O,0,0,5.6,['5.60'],['pKa_prospector']
4642,O=[N+]([O-])c1cnc2ccncc2c1,O,0,0,2.32,['2.32'],['pKa_prospector']
4643,O=C(NO)c1ccncc1,O,0,0,7.85,['7.85'],['pKa_prospector']
4644,[NH3+]C(Cc1ccncc1)C(=O)[O-],O,0,0,4.85,['4.85'],['pKa_prospector']
4645,[NH3+]CCCCCc1ccncc1,O,0,0,10.3,['10.30'],['pKa_prospector']
4646,[NH3+]CCCCc1ccncc1,O,0,0,10.18,['10.18'],['pKa_prospector']
4647,[NH3+]CCCc1ccncc1,O,0,0,9.98,['9.98'],['pKa_prospector']
4648,Ic1ccncc1,O,0,0,4.02,['4.02'],['pKa_prospector']
4649,c1cc2c(nn1)CCCC2,O,0,0,4.3,['4.30'],['pKa_prospector']
4650,c1csc(N2CC[NH2+]CC2)n1,O,0,0,8.39,['8.39'],['pKa_prospector']
4651,Nc1ncnc(N)c1Br,O,0,0,4.2,['4.20'],['pKa_prospector']
4652,c1nc(NC2CCCCC2)c2ncn(C3CCCCC3)c2n1,O,0,0,4.4,['4.40'],['pKa_prospector']
4653,Nc1ncnc2c1ncn2NC1CCCCC1,O,0,0,4.19,['4.19'],['pKa_prospector']
4654,Nc1nc2ncnc(N)c2nc1N,O,0,0,5.56,['5.56'],['pKa_prospector']
4655,Nc1ncnc2scnc12,O,0,0,2.74,['2.74'],['pKa_prospector']
4656,Nc1nc2c(ncn2C2C=CC(CO)C2)c(=O)[nH]1,O,0,0,3.15,['3.15'],['pKa_prospector']
4657,Nc1nc2c(ncn2COCCO)c(=O)[nH]1,O,0,0,2.27,['2.27'],['pKa_prospector']
4658,NNc1ncnc2c(C3OC(CO)C(O)C3O)n[nH]c12,O,0,0,4.55,['4.55'],['pKa_prospector']
4659,O=CC(CO)OC(C=O)n1cnc2c(O)ncnc21,O,0,0,8.49,['8.49'],['pKa_prospector']
4660,OCC1OC(n2cnc3c([S-])ncnc32)C(O)C1O,O,0,0,7.64,['7.64'],['pKa_prospector']
4661,O=c1[nH]c(=O)c2ncn(C3OC(CO)C(O)C3O)c2[nH]1,O,0,0,5.7,['5.70'],['pKa_prospector']
4662,OCC1OC(n2cnc3c2[NH+]=CNCC3O)CC1O,O,0,0,8.8,['8.80'],['pKa_prospector']
4663,Nc1nc([S-])c2ncn(C3CC(O)C(CO)O3)c2n1,O,0,0,8.27,['8.27'],['pKa_prospector']
4664,Nc1nc(N)c2ncn(COCCO)c2n1,O,0,0,4.28,['4.28'],['pKa_prospector']