,Solute SMILES,Solvent SMILES,Solute CAS,Solute IUPAC,pKa (avg),pKa (all),Source
3194,Cn1c(=O)cnc2ccccc21,O,0,0,-1.15,['-1.15'],['pKa_prospector']
3195,Cn1c(=S)cnc2ccccc21,O,0,0,-1.01,['-1.01'],['pKa_prospector']
3196,Cn1c(=NO)sc2ccccc21,O,0,0,12.77,['12.77'],['pKa_prospector']
3197,Cn1c(=O)n(C)c2ncncc21,O,0,0,2.8,['2.80'],['pKa_prospector']
3198,Cn1cc(Br)c(=O)n(C)c1=O,O,0,0,-6.44,['-6.44'],['pKa_prospector']
3199,COc1nc(=O)n(C)cc1Br,O,0,0,-3.32,['-3.32'],['pKa_prospector']
3200,Cn1cc(Br)cnc1=N,O,0,0,9.91,['9.91'],['pKa_prospector']
3201,Cn1cnc(-c2ccccc2)c1,O,0,0,5.78,['5.78'],['pKa_prospector']
3202,Cn1cc2nccnc2nc1=O,O,0,0,11.04,['11.04'],['pKa_prospector']
3203,Cn1cc2ccccc2n1,O,0,0,1.72,['1.72'],['pKa_prospector']
3204,Cn1cc2ccccc2nc1=O,O,0,0,2.15,['2.15'],['pKa_prospector']
3205,Cn1ccc(=N)c2ccccc21,O,0,0,12.4,['12.40'],['pKa_prospector']
3206,Cn1ccc(=N)n(C)c1=O,O,0,0,9.29,['9.29'],['pKa_prospector']
3207,CSc1nc(=N)ccn1C,O,0,0,12.5,['12.50'],['pKa_prospector']
3208,Cn1ccc(=NS(C)(=O)=O)cc1,O,0,0,3.42,['3.42'],['pKa_prospector']
3209,Cn1ccc(=O)c2ccccc21,O,0,0,2.36,['2.36'],['pKa_prospector']
3210,Cn1ccc(=O)n(C)c1=O,O,0,0,-3.25,['-3.25'],['pKa_prospector']
3211,CN(C)c1ccn(C)c(=N)n1,O,0,0,13.69,['13.69'],['pKa_prospector']
3212,CN(C)c1ccn(C)c(=O)n1,O,0,0,4.2,['4.20'],['pKa_prospector']
3213,COc1ccn(C)c(=O)n1,O,0,0,0.65,['0.65'],['pKa_prospector']
3214,Cn1ccc2cc(=O)ccc-2c1,O,0,0,5.99,['5.99'],['pKa_prospector']
3215,Cn1ccc2cccc(=O)c-2c1,O,0,0,5.78,['5.78'],['pKa_prospector']
3216,Cn1ccc2ccccc2c1=O,O,0,0,-1.8,['-1.80'],['pKa_prospector']
3217,Cn1ccc2ccccc2c1=S,O,0,0,-2.13,['-2.13'],['pKa_prospector']
3218,Cn1cccc2c(=O)cccc1-2,O,0,0,6.09,['6.09'],['pKa_prospector']
3219,Cn1cccc2ccc(=O)cc1-2,O,0,0,5.53,['5.53'],['pKa_prospector']
3220,Cn1cccc1-c1cccnc1,O,0,0,4.73,['4.73'],['pKa_prospector']
3221,Cn1ccccc1=NS(C)(=O)=O,O,0,0,-0.33,['-0.33'],['pKa_prospector']
3222,Cn1ccnc2c(N)nc(=N)nc1-2,O,0,0,8.84,['8.84'],['pKa_prospector']
3223,COc1ccc(CC[NH2+]CC(O)COc2ccc(-c3nccn3C)cc2)cc1OC,O,0,0,8.63,['8.63'],['pKa_prospector']
3224,Cn1cnc(=N)c2nccnc21,O,0,0,9.48,['9.48'],['pKa_prospector']
3225,Cn1cnc(=O)c2ccccc21,O,0,0,3.15,['3.15'],['pKa_prospector']
3226,Cn1cnc(=O)c2nccnc21,O,0,0,1.18,['1.18'],['pKa_prospector']
3227,Cn1cnc(=S)c2ccccc21,O,0,0,2.96,['2.96'],['pKa_prospector']
3228,Cn1cnc(N)c(N)c1=O,O,0,0,3.42,['3.42'],['pKa_prospector']
3229,Cn1cnc([N+](=O)[O-])c1Sc1[nH]cnc2ncnc1-2,O,0,0,7.99,['7.99'],['pKa_prospector']
3230,Cn1cnc2nccnc2c1=O,O,0,0,-0.47,['-0.47'],['pKa_prospector']
3231,Cn1cnc2c(=O)[nH]c(=O)[nH]c21,O,0,0,6.25,['6.25'],['pKa_prospector']
3232,Cn1c(=O)[nH]c2c(ncn2C)c1=O,O,0,0,6.3,['6.30'],['pKa_prospector']
3233,Cn1c(=O)[nH]c2ncn(C)c2c1=O,O,0,0,8.71,['8.71'],['pKa_prospector']
3234,Cn1cnc2ncn(C)c2c1=O,O,0,0,2.13,['2.13'],['pKa_prospector']
3235,Cn1cnc2cccc([N+](=O)[O-])c21,O,0,0,3.25,['3.25'],['pKa_prospector']
3236,Cn1cnc2ccc([N+](=O)[O-])cc21,O,0,0,3.67,['3.67'],['pKa_prospector']
3237,Cn1cnc2cc([N+](=O)[O-])ccc21,O,0,0,3.4,['3.40'],['pKa_prospector']
3238,Cn1cnc2ccccc21,O,0,0,5.54,['5.54'],['pKa_prospector']
3239,Cn1cnc2c([N+](=O)[O-])cccc21,O,0,0,3.86,['3.86'],['pKa_prospector']
3240,Cn1cnc2ncncc21,O,0,0,2.25,['2.25'],['pKa_prospector']
3241,Cn1cnc2cnc(O)nc21,O,0,0,9.22,['9.22'],['pKa_prospector']
3242,Cn1cnc2cncnc21,O,0,0,2.27,['2.27'],['pKa_prospector']
3243,Cn1cnc2ccccc2c1=O,O,0,0,2.18,['2.18'],['pKa_prospector']
3244,Cn1cnc2ccccc2c1=S,O,0,0,1.22,['1.22'],['pKa_prospector']
3245,NS(=O)(=O)c1nn2c(=O)[nH]c(=O)nc2s1,O,0,0,8.3,['8.30'],['pKa_prospector']
3246,O=C(Nc1n[nH]c(NC(=O)C(F)(F)F)n1)C(F)(F)F,O,0,0,5.9,['5.90'],['pKa_prospector']
3247,Brc1nnn[n-]1,O,0,0,2.13,['2.13'],['pKa_prospector']
3248,Ic1nnn[n-]1,O,0,0,2.85,['2.85'],['pKa_prospector']
3249,[O-]c1c(Cl)c(Cl)c(Cl)c(Cl)c1Cl,O,0,0,4.89,['4.89'],['pKa_prospector']
3250,[O-]c1c(F)c(F)c(F)c(F)c1F,O,0,0,5.42,['5.42'],['pKa_prospector']
3251,Nc1c(Cl)c(Cl)[nH+]c(C(=O)[O-])c1Cl,O,0,0,1.5,['1.50'],['pKa_prospector']
3252,Clc1nc(Cl)c(Cl)c(Cl)c1Cl,O,0,0,-1,['-1.00'],['pKa_prospector']
3253,Brc1nc(Br)c(Br)[nH]1,O,0,0,6.95,['6.95'],['pKa_prospector']
3254,O=[N+]([O-])c1[nH]c(Br)nc1Br,O,0,0,3.65,['3.65'],['pKa_prospector']
3255,Clc1nc(Cl)c(Cl)[nH]1,O,0,0,6.5,['6.50'],['pKa_prospector']
3256,Ic1nc(I)c(I)[nH]1,O,0,0,8,['8.00'],['pKa_prospector']
3257,NC(=[NH2+])NC(=O)c1nc(Cl)c(N)nc1N,O,0,0,8.7,['8.70'],['pKa_prospector']
3258,Nc1n[nH]c(NC(=O)C(F)(F)C(F)(F)C(F)(F)F)n1,O,0,0,6.1,['6.10'],['pKa_prospector']
3259,NC(=[NH2+])Nc1nc(N)nc(N)n1,O,0,0,9.4,['9.40'],['pKa_prospector']
3260,O=c1[nH]c(=O)c2[nH]c(=O)[nH]c2[nH]1,O,0,0,5.4,['5.40'],['pKa_prospector']
3261,Nc1nc(=O)c2[nH]nnc2[nH]1,O,0,0,6.43,['6.43'],['pKa_prospector']
3262,FC(F)(F)c1nc2c(Cl)c(Cl)c(Cl)c(Cl)c2[nH]1,O,0,0,5.37,['5.37'],['pKa_prospector']
3263,Nc1nc(N)c2nc(N)c(N)nc2n1,O,0,0,6.82,['6.82'],['pKa_prospector']
3264,N#CCCN(CCC#N)N=Nc1[nH]cnc1C(N)=O,O,0,0,3.94,['3.94'],['pKa_prospector']
3265,S=c1[nH]cnc2nc[nH]c12,O,0,0,7.8,['7.80'],['pKa_prospector']
3266,Nc1nc([S-])c2[nH]cnc2n1,O,0,0,8.22,['8.22'],['pKa_prospector']
3267,Clc1ncnc2nc[nH]c12,O,0,0,7.85,['7.85'],['pKa_prospector']
3268,[S-]c1ncnc2nc[nH]c12,O,0,0,7.8,['7.80'],['pKa_prospector']
3269,FC(F)(F)c1ncnc2nc[nH]c12,O,0,0,7.35,['7.35'],['pKa_prospector']
3270,O=c1cnn(C2OC(CO)C(O)C2O)c(=O)[nH]1,O,0,0,6.63,['6.63'],['pKa_prospector']
3271,NS(=O)(=O)c1nn2c([O-])cc(=O)nc2s1,O,0,0,7.8,['7.80'],['pKa_prospector']
3272,O=C(OC1CCCCC1)n1cc(F)c(=O)[nH]c1=O,O,0,0,6.8,['6.80'],['pKa_prospector']
3273,O=C(OCCCl)n1cc(F)c(=O)[nH]c1=O,O,0,0,6.7,['6.70'],['pKa_prospector']
3274,O=c1[nH]c(=O)n(C2CC(O)C(CO)O2)cc1C(F)(F)F,O,0,0,7.95,['7.95'],['pKa_prospector']
3275,O=c1[nH]c(=O)n(C2CC(O)C(CO)O2)cc1F,O,0,0,7.44,['7.44'],['pKa_prospector']
3276,O=c1[nH]c(=O)n(C2CCCO2)cc1F,O,0,0,7.71,['7.71'],['pKa_prospector']
3277,Oc1cc(Cl)c(Cl)c(Cl)c1Cl,O,0,0,6.2,['6.20'],['pKa_prospector']
3278,[O-]c1c(Cl)cc(Cl)c(Cl)c1Cl,O,0,0,5.41,['5.41'],['pKa_prospector']
3279,[O-]c1c(Cl)c(Cl)cc(Cl)c1Cl,O,0,0,5.03,['5.03'],['pKa_prospector']
3280,O=[N+]([O-])c1cc(Cl)c([O-])c(Cl)c1Cl,O,0,0,3.08,['3.08'],['pKa_prospector']
3281,Clc1cc(Cl)c([NH+]=C2NCCN2)cc1Cl,O,0,0,7.7,['7.70'],['pKa_prospector']
3282,Oc1cc(Cl)c(Cl)cc1Cl,O,0,0,6.97,['6.97'],['pKa_prospector']
3283,O=C([O-])COc1cc(Cl)c(Cl)cc1Cl,O,0,0,2.84,['2.84'],['pKa_prospector']
3284,Nc1ncc(Cc2cc3c(cc2Br)OCO3)c(N)n1,O,0,0,7.11,['7.11'],['pKa_prospector']
3285,Nc1nc(=O)n(C2OC(CO)C(O)C2O)cc1F,O,0,0,2.26,['2.26'],['pKa_prospector']
3286,Nc1nc(=O)n(C2CC(O)C(CO)O2)cc1F,O,0,0,2.39,['2.39'],['pKa_prospector']
3287,Clc1cc(Cl)c(Cl)nc1Cl,O,0,0,-0.8,['-0.80'],['pKa_prospector']
3288,Nc1cnc(Cl)nc1N,O,0,0,2.63,['2.63'],['pKa_prospector']
3289,Nc1nc([O-])ncc1[N+](=O)[O-],O,0,0,7.4,['7.40'],['pKa_prospector']
3290,Nc1ncncc1NC(=O)C(F)(F)F,O,0,0,3.91,['3.91'],['pKa_prospector']
3291,FC(F)(F)c1nc2c(Cl)c(Cl)cc(Cl)c2[nH]1,O,0,0,3.78,['3.78'],['pKa_prospector']
3292,Brc1cc(Br)c([NH+]=C2NCCN2)c(Br)c1,O,0,0,7.46,['7.46'],['pKa_prospector']
3293,[O-]c1c(Br)cc(Br)cc1Br,O,0,0,6.28,['6.28'],['pKa_prospector']
3294,N#Cc1cc(Br)c([O-])c(Br)c1,O,0,0,4.1,['4.10'],['pKa_prospector']
3295,Nc1cc(Br)c([O-])c(Br)c1,O,0,0,3.2,['3.20'],['pKa_prospector']
3296,O=[N+]([O-])c1cc(Br)c([O-])c(Br)c1,O,0,0,3.24,['3.24'],['pKa_prospector']
3297,Nc1cc(Cl)cc(C(=O)[O-])c1Cl,O,0,0,4,['4.00'],['pKa_prospector']
3298,O=Cc1cc(Br)cc(Br)c1O,O,0,0,5.7,['5.70'],['pKa_prospector']
3299,OCc1cc(CO)c(O)c(CO)c1,O,0,0,9.56,['9.56'],['pKa_prospector']
3300,[O-]c1c(Cl)c(Cl)c(Cc2cc(Cl)cc(Cl)c2O)c(Cl)c1Cl,O,0,0,8.55,['8.55'],['pKa_prospector']
3301,Oc1cc(Cl)c(Cl)c(Cl)c1,O,0,0,7.7,['7.70'],['pKa_prospector']
3302,Nc1c(Cl)cc([N+](=O)[O-])cc1Cl,O,0,0,-2.55,['-2.55'],['pKa_prospector']
3303,Clc1cc(Br)cc(Cl)c1[NH+]=C1NCCN1,O,0,0,7.72,['7.72'],['pKa_prospector']
3304,Clc1cc(Cl)c([NH+]=C2NCCN2)c(Cl)c1,O,0,0,7.67,['7.67'],['pKa_prospector']
3305,O=[N+]([O-])c1cc(Cl)c([NH+]=C2NCCN2)c(Cl)c1,O,0,0,6.86,['6.86'],['pKa_prospector']
3306,Oc1cc(Cl)c([NH+]=C2NCCN2)c(Cl)c1,O,0,0,7.95,['7.95'],['pKa_prospector']
3307,[O-]c1c(Cl)cc(Cl)cc1Cl,O,0,0,6.34,['6.34'],['pKa_prospector']
3308,O=[N+]([O-])c1cc(Cl)c([O-])c(Cl)c1,O,0,0,3.39,['3.39'],['pKa_prospector']
3309,N#Cc1cc(I)c([O-])c(I)c1,O,0,0,4,['4.00'],['pKa_prospector']
3310,O=[N+]([O-])c1cc(I)c([O-])c(I)c1,O,0,0,3.17,['3.17'],['pKa_prospector']
3311,O=C([O-])c1c([N+](=O)[O-])cc([N+](=O)[O-])cc1[N+](=O)[O-],O,0,0,0.65,['0.65'],['pKa_prospector']
3312,Nc1c(Cl)cc(Cl)cc1[N+](=O)[O-],O,0,0,-3.61,['-3.61'],['pKa_prospector']
3313,Nc1c([N+](=O)[O-])cc([N+](=O)[O-])cc1[N+](=O)[O-],O,0,0,-9.41,['-9.41'],['pKa_prospector']
3314,O=[N+]([O-])c1cc(C(F)(F)F)cc([N+](=O)[O-])c1NN=C(C(F)(F)F)C(F)(F)F,O,0,0,6.87,['6.87'],['pKa_prospector']
3315,O=[N+]([O-])c1cc(Br)cc(Br)c1[O-],O,0,0,4.55,['4.55'],['pKa_prospector']
3316,O=[N+]([O-])c1cc(Cl)cc(Cl)c1[O-],O,0,0,4.6,['4.60'],['pKa_prospector']
3317,O=[N+]([O-])c1cc(Cl)cc([N+](=O)[O-])c1[O-],O,0,0,2.97,['2.97'],['pKa_prospector']
3318,O=[N+]([O-])c1cc([N+](=O)[O-])c([O-])c([N+](=O)[O-])c1,O,0,0,-0.04,['-0.04'],['pKa_prospector']
3319,Oc1cc(Cl)cc(Cl)c1Cc1c(O)cc(Cl)cc1Cl,O,0,0,7.6,['7.60'],['pKa_prospector']
3320,Oc1cc(Cl)cc(Cl)c1Cl,O,0,0,6.43,['6.43'],['pKa_prospector']
3321,O=S(c1cc(Cl)cc(Cl)c1O)c1cc(Cl)cc(Cl)c1O,O,0,0,3.95,['3.95'],['pKa_prospector']
3322,FC(F)(F)c1nc2c(Cl)cc(Cl)cc2[nH]1,O,0,0,7.25,['7.25'],['pKa_prospector']
3323,O=[N+]([O-])c1cc([N+](=O)[O-])c2[nH]ncc2c1,O,0,0,1.2,['1.20'],['pKa_prospector']
3324,Nc1cc(Br)cc(Br)c1,O,0,0,2.34,['2.34'],['pKa_prospector']
3325,FC(F)(F)C(=NNc1cc(C(F)(F)F)cc(C(F)(F)F)c1)C(F)(F)F,O,0,0,7.75,['7.75'],['pKa_prospector']
3326,Oc1cc(Cl)cc(Cl)c1,O,0,0,8.18,['8.18'],['pKa_prospector']
3327,O=C([O-])COc1cc(Cl)cc(Cl)c1,O,0,0,2.84,['2.84'],['pKa_prospector']
3328,O=C([O-])c1cc([N+](=O)[O-])cc([N+](=O)[O-])c1,O,0,0,2.82,['2.82'],['pKa_prospector']
3329,Clc1cc(Cl)nc(Cl)c1,O,0,0,-0.3,['-0.30'],['pKa_prospector']
3330,Clc1cnc(Cl)c(Cl)c1,O,0,0,0.78,['0.78'],['pKa_prospector']
3331,Nc1ncc(Br)cn1,O,0,0,1.95,['1.95'],['pKa_prospector']
3332,Nc1ncc([N+](=O)[O-])cn1,O,0,0,0.35,['0.35'],['pKa_prospector']
3333,Fc1cnc(N2CC[NH2+]CC2)nc1,O,0,0,8.91,['8.91'],['pKa_prospector']
3334,Clc1cncc(Cl)c1,O,0,0,3.2,['3.20'],['pKa_prospector']
3335,Nc1cc(Cl)nc(N)n1,O,0,0,3.55,['3.55'],['pKa_prospector']
3336,Nc1cnc2c(N)nc(N)nc2n1,O,0,0,6.29,['6.29'],['pKa_prospector']
3337,Nc1cnc2c(N)ncnc2n1,O,0,0,4.96,['4.96'],['pKa_prospector']
3338,Nc1cnc2ncnc(N)c2n1,O,0,0,4.33,['4.33'],['pKa_prospector']
3339,O=c1cc(CO)occ1O,O,0,0,9.4,['9.40'],['pKa_prospector']
3340,O=c1ncc2c([nH]1)NCC=N2,O,0,0,3.46,['3.46'],['pKa_prospector']
3341,Oc1nc(O)c2cn[nH]c2n1,O,0,0,7.7,['7.70'],['pKa_prospector']
3342,O=c1[nH]cnc2[nH]ncc12,O,0,0,9.4,['9.40'],['pKa_prospector']
3343,FC(F)(F)c1nc2c(Br)c(Br)c(Br)cc2[nH]1,O,0,0,6.3,['6.30'],['pKa_prospector']
3344,FC(F)(F)c1nc2c(Cl)c(Cl)c(Cl)cc2[nH]1,O,0,0,6.6,['6.60'],['pKa_prospector']
3345,FC(F)(F)c1nc2cc(Br)c(Br)cc2[nH]1,O,0,0,7.1,['7.10'],['pKa_prospector']
3346,O=c1nc2n(CCC[NH+]3CCCCC3)c3cc(Cl)c(Cl)cc3nc-2c(=O)[nH]1,O,0,0,8.9,['8.90'],['pKa_prospector']
3347,FC(F)(F)c1nc2cc(Cl)c(Cl)cc2[nH]1,O,0,0,7.6,['7.60'],['pKa_prospector']
3348,O=[N+]([O-])c1cc2[nH]c(C(F)(F)F)nc2cc1Cl,O,0,0,5.95,['5.95'],['pKa_prospector']
3349,O=[N+]([O-])c1cc2nc(C(F)(F)F)[nH]c2cc1[N+](=O)[O-],O,0,0,4.05,['4.05'],['pKa_prospector']
3350,[NH3+]C1CCc2cc(O)c(O)cc2C1,O,0,0,9.4,['9.40'],['pKa_prospector']
3351,Clc1nc2cc3c(cc2[nH]1)CCCC3,O,0,0,2.64,['2.64'],['pKa_prospector']
3352,Nc1nc2cc3c(cc2[nH]1)CCCC3,O,0,0,7.64,['7.64'],['pKa_prospector']
3353,O=C([O-])c1cc(=O)c2cc3c(cc2o1)CCCC3,O,0,0,1.65,['1.65'],['pKa_prospector']
3354,O=C([O-])CCc1cc(=O)c2cc3c(cc2o1)CCCC3,O,0,0,4.29,['4.29'],['pKa_prospector']
3355,Oc1ncc2c(n1)NCC=N2,O,0,0,3.46,['3.46'],['pKa_prospector']
3356,Nc1nc(N)c2cn[nH]c2n1,O,0,0,5.54,['5.54'],['pKa_prospector']
3357,Clc1cnc2ncncc2n1,O,0,0,3.68,['3.68'],['pKa_prospector']
3358,Nc1cnc2ncncc2n1,O,0,0,4.13,['4.13'],['pKa_prospector']
3359,c1ncc2c(n1)NCCN2,O,0,0,6.6,['6.60'],['pKa_prospector']
3360,O=CN1CCNc2ncncc21,O,0,0,4.99,['4.99'],['pKa_prospector']
3361,Nc1cnc2cncnc2n1,O,0,0,2.2,['2.20'],['pKa_prospector']
3362,Nc1ncnc2c1cnn2CCO,O,0,0,4.25,['4.25'],['pKa_prospector']
3363,ON=c1ncc2c(s1)CCCC2,O,0,0,10.52,['10.52'],['pKa_prospector']
3364,NS(=O)(=O)c1cc2c(s1)C(=O)CCS2,O,0,0,8.45,['8.45'],['pKa_prospector']
3365,NS(=O)(=O)c1cc2c(s1)C(=O)CCS2(=O)=O,O,0,0,7.32,['7.32'],['pKa_prospector']
3366,NS(=O)(=O)c1cc2c(s1)C(O)CCS2(=O)=O,O,0,0,8.34,['8.34'],['pKa_prospector']
3367,NS(=O)(=O)c1cc2c(s1)C(O)CCS2,O,0,0,9,['9.00'],['pKa_prospector']
3368,NS(=O)(=O)c1cc2c(s1)C(O)CCS2=O,O,0,0,8.82,['8.82'],['pKa_prospector']
3369,NS(=O)(=O)c1cc2c(s1)CC(O)CS2(=O)=O,O,0,0,8.52,['8.52'],['pKa_prospector']
3370,NS(=O)(=O)c1cc2c(s1)S(=O)(=O)CC(O)C2,O,0,0,8.6,['8.60'],['pKa_prospector']
3371,NS(=O)(=O)c1cc2c(s1)S(=O)(=O)CCC2,O,0,0,8.35,['8.35'],['pKa_prospector']
3372,NS(=O)(=O)c1cc2c(s1)S(=O)(=O)CCC2=O,O,0,0,7.92,['7.92'],['pKa_prospector']
3373,NS(=O)(=O)c1cc2c(s1)S(=O)(=O)CCC2O,O,0,0,8.32,['8.32'],['pKa_prospector']
3374,NS(=O)(=O)c1cc2c(s1)S(=O)CCC2O,O,0,0,8.68,['8.68'],['pKa_prospector']
3375,NS(=O)(=O)c1cc2c(s1)SCCC2=O,O,0,0,8.6,['8.60'],['pKa_prospector']
3376,NS(=O)(=O)c1cc2c(s1)SCCC2O,O,0,0,9.4,['9.40'],['pKa_prospector']
3377,NS(=O)(=O)c1cc2cc(C(=O)NCC[NH+]3CCOCC3)sc2s1,O,0,0,5.8,['5.80'],['pKa_prospector']
3378,NS(=O)(=O)c1cc2cc(C(=O)NCC[NH+]3CCSCC3)sc2s1,O,0,0,6.03,['6.03'],['pKa_prospector']
3379,NS(=O)(=O)c1cc2cc(C[NH+](CCO)CCO)sc2s1,O,0,0,5.5,['5.50'],['pKa_prospector']
3380,NS(=O)(=O)c1cc2cc(C[NH3+])sc2s1,O,0,0,7.3,['7.30'],['pKa_prospector']
3381,NS(=O)(=O)c1cc2cc(C[NH+]3CCOCC3)sc2s1,O,0,0,5.25,['5.25'],['pKa_prospector']
3382,NS(=O)(=O)c1cc2cc(C[NH+]3CCS(=O)CC3)sc2s1,O,0,0,4.23,['4.23'],['pKa_prospector']
3383,NS(=O)(=O)c1cc2cc(C[NH+]3CCSCC3)sc2s1,O,0,0,5.05,['5.05'],['pKa_prospector']
3384,NS(=O)(=O)c1cc2cc(C[NH2+]CC(O)CO)sc2s1,O,0,0,6.95,['6.95'],['pKa_prospector']
3385,NS(=O)(=O)c1cc2cc(CNCC(F)(F)F)sc2s1,O,0,0,3.75,['3.75'],['pKa_prospector']
3386,NS(=O)(=O)c1cc2cc(C[NH2+]CC3CC3)sc2s1,O,0,0,7.72,['7.72'],['pKa_prospector']
3387,NS(=O)(=O)c1cc2cc(C[NH2+]CCCCO)sc2s1,O,0,0,7.7,['7.70'],['pKa_prospector']
3388,NS(=O)(=O)c1cc2cc(C[NH2+]CCF)sc2s1,O,0,0,6.4,['6.40'],['pKa_prospector']
3389,NS(=O)(=O)c1cc2cc(C[NH2+]CCO)sc2s1,O,0,0,7.18,['7.18'],['pKa_prospector']
3390,c1cncc(-c2ccc[nH]2)c1,O,0,0,4.32,['4.32'],['pKa_prospector']
3391,O=Nc1ccc(O)c(=O)cc1,O,0,0,5.7,['5.70'],['pKa_prospector']
3392,Brc1cccc(N(CC2CC2)C2=[NH+]CCN2)c1Br,O,0,0,11.1,['11.10'],['pKa_prospector']
3393,Brc1cccc([NH+]=C2NCCN2)c1Br,O,0,0,8.65,['8.65'],['pKa_prospector']
3394,O=C([O-])c1c(Br)cccc1CO,O,0,0,2.25,['2.25'],['pKa_prospector']
3395,O=C([O-])c1c(Br)cccc1[N+](=O)[O-],O,0,0,1.37,['1.37'],['pKa_prospector']
3396,O=C([O-])c1cccc(Br)c1CO,O,0,0,3.28,['3.28'],['pKa_prospector']
3397,Clc1c(Br)cccc1[NH+]=C1NCCN1,O,0,0,8.55,['8.55'],['pKa_prospector']
3398,Brc1cccc(Br)c1N(C1=[NH+]CCN1)C1CCCC1,O,0,0,11.2,['11.20'],['pKa_prospector']
3399,Brc1cccc(Br)c1N(C1=[NH+]CCN1)C1CCCCC1,O,0,0,11.3,['11.30'],['pKa_prospector']
3400,NC(=[NH2+])N(CC1CC1)c1c(Br)cccc1Br,O,0,0,11.9,['11.90'],['pKa_prospector']
3401,Brc1cccc(Br)c1N(CC1CC1)C1=[NH+]CCCN1,O,0,0,12.4,['12.40'],['pKa_prospector']
3402,Brc1cccc(Br)c1N(CC1CC1)C1=[NH+]CCN1,O,0,0,10.88,['10.88'],['pKa_prospector']
3403,Clc1cccc(Br)c1N(CC1CC1)C1=[NH+]CCN1,O,0,0,10.8,['10.80'],['pKa_prospector']
3404,Fc1cccc(Br)c1N(CC1CC1)C1=[NH+]CCN1,O,0,0,10.7,['10.70'],['pKa_prospector']
3405,Brc1cccc(Br)c1N(CC1CCC1)C1=[NH+]CCN1,O,0,0,10.9,['10.90'],['pKa_prospector']
3406,Brc1cccc(Br)c1N(CC1CCCC1)C1=[NH+]CCN1,O,0,0,10.9,['10.90'],['pKa_prospector']
3407,Brc1cccc(Br)c1N(CC1CCCCC1)C1=[NH+]CCN1,O,0,0,11.2,['11.20'],['pKa_prospector']
3408,Brc1cccc(Br)c1N(Cc1ccco1)C1=[NH+]CCN1,O,0,0,10.5,['10.50'],['pKa_prospector']
3409,Brc1cccc(Br)c1N(Cc1cccs1)C1=[NH+]CCN1,O,0,0,10.51,['10.51'],['pKa_prospector']
3410,Nc1c(Br)cccc1Br,O,0,0,0.35,['0.35'],['pKa_prospector']
3411,Brc1cccc(Br)c1[NH+]=C1NCCN1,O,0,0,7.96,['7.96'],['pKa_prospector']
3412,Clc1cccc(Br)c1[NH+]=C1NCCN1,O,0,0,7.93,['7.93'],['pKa_prospector']
3413,[O-]c1c(Br)cccc1Br,O,0,0,6.52,['6.52'],['pKa_prospector']
3414,OCc1cccc(CO)c1O,O,0,0,9.66,['9.66'],['pKa_prospector']
3415,Clc1cccc([NH+]=C2NCCN2)c1Br,O,0,0,8.69,['8.69'],['pKa_prospector']
3416,O=C([O-])c1c(Cl)cccc1CO,O,0,0,2.26,['2.26'],['pKa_prospector']
3417,O=C([O-])c1c(Cl)cccc1[N+](=O)[O-],O,0,0,1.34,['1.34'],['pKa_prospector']
3418,Clc1cccc(Cl)c1CC1=[NH+]CCN1,O,0,0,9.96,['9.96'],['pKa_prospector']
3419,O=C([O-])c1cccc(Cl)c1CO,O,0,0,3.27,['3.27'],['pKa_prospector']
3420,Clc1cccc([NH+]=C2NCCN2)c1Cl,O,0,0,8.55,['8.55'],['pKa_prospector']
3421,S=C(N=Nc1cccc(Cl)c1Cl)NNc1cccc(Cl)c1Cl,O,0,0,4.87,['4.87'],['pKa_prospector']
3422,Oc1cccc(Cl)c1Cl,O,0,0,7.69,['7.69'],['pKa_prospector']
3423,Clc1cccc(Cl)c1N(CC1CC1)C1=[NH+]CCN1,O,0,0,10.9,['10.90'],['pKa_prospector']
3424,Fc1cccc(Cl)c1N(CC1CC1)C1=[NH+]CCN1,O,0,0,10.8,['10.80'],['pKa_prospector']
3425,Clc1cccc(Cl)c1[NH+]=C1NCCN1,O,0,0,8.05,['8.05'],['pKa_prospector']
3426,Fc1cccc(Cl)c1[NH+]=C1NCCN1,O,0,0,8.01,['8.01'],['pKa_prospector']
3427,Clc1cccc(Cl)c1NC1=[NH+]CCN1,O,0,0,7.84,['7.84'],['pKa_prospector']
3428,N#CC(C#N)=NNc1c(Cl)cccc1Cl,O,0,0,4.7,['4.70'],['pKa_prospector']
3429,O=C([O-])Cc1cc(F)ccc1Nc1c(Cl)cccc1Cl,O,0,0,4.02,['4.02'],['pKa_prospector']
3430,O=C([O-])Cc1cc(O)ccc1Nc1c(Cl)cccc1Cl,O,0,0,4.22,['4.22'],['pKa_prospector']
3431,[O-]c1c(Cl)cccc1Cl,O,0,0,6.78,['6.78'],['pKa_prospector']
3432,Fc1cccc([NH+]=C2NCCN2)c1Br,O,0,0,8.6,['8.60'],['pKa_prospector']
3433,O=C1CN=C(c2c(F)cccc2F)c2cc(Cl)ccc2N1,O,0,0,1.63,['1.63'],['pKa_prospector']
3434,O=C1CN=C(c2c(F)cccc2F)c2ccc(Cl)cc2N1,O,0,0,1.95,['1.95'],['pKa_prospector']
3435,Fc1cccc([NH+]=C2NCCN2)c1Cl,O,0,0,8.6,['8.60'],['pKa_prospector']
3436,Fc1cccc(C(F)(F)F)c1N(CC1CC1)C1=[NH+]CCN1,O,0,0,10.7,['10.70'],['pKa_prospector']
3437,Fc1cccc(F)c1N(CC1CC1)C1=[NH+]CCN1,O,0,0,10.3,['10.30'],['pKa_prospector']
3438,Fc1cccc(F)c1[NH+]=C1NCCN1,O,0,0,8.29,['8.29'],['pKa_prospector']
3439,O=C([O-])c1cccc(I)c1CO,O,0,0,3.18,['3.18'],['pKa_prospector']
3440,O=C([O-])c1c([N+](=O)[O-])cccc1[N+](=O)[O-],O,0,0,1.14,['1.14'],['pKa_prospector']
3441,O=C([O-])c1cccc([N+](=O)[O-])c1Cl,O,0,0,2.02,['2.02'],['pKa_prospector']
3442,O=C([O-])c1cccc([N+](=O)[O-])c1[N+](=O)[O-],O,0,0,1.54,['1.54'],['pKa_prospector']
3443,O=[N+]([O-])c1cccc([N+](=O)[O-])c1[O-],O,0,0,3.63,['3.63'],['pKa_prospector']
3444,NC(=O)c1c(O)cccc1O,O,0,0,7.1,['7.10'],['pKa_prospector']
3445,O=C([O-])c1c(O)cccc1O,O,0,0,1.22,['1.22'],['pKa_prospector']
3446,O=Cc1c(O)cccc1O,O,0,0,7,['7.00'],['pKa_prospector']
3447,O=[N+]([O-])c1c([O-])cccc1[O-],O,0,0,6.4,['6.40'],['pKa_prospector']
3448,O=[N+]([O-])c1cccc(O)c1[O-],O,0,0,6.68,['6.68'],['pKa_prospector']
3449,O=C([O-])c1c(Cl)ccc(Cl)c1Cl,O,0,0,1.3,['1.30'],['pKa_prospector']
3450,O=C([O-])Cc1c(Cl)ccc(Cl)c1Cl,O,0,0,3.75,['3.75'],['pKa_prospector']
3451,Oc1c(Cl)ccc(Cl)c1Cc1c(O)c(Cl)cc(Cl)c1Cl,O,0,0,6.05,['6.05'],['pKa_prospector']
3452,[O-]c1c(Cl)ccc(Cl)c1Cl,O,0,0,5.92,['5.92'],['pKa_prospector']
3453,Oc1ccc(Cl)c(Cl)c1Cc1c(O)ccc(Cl)c1Cl,O,0,0,8.1,['8.10'],['pKa_prospector']
3454,Oc1ccc(Cl)c(Cl)c1Cl,O,0,0,6.97,['6.97'],['pKa_prospector']
3455,FC(F)(F)c1nc2c(Cl)c(Cl)ccc2[nH]1,O,0,0,7.4,['7.40'],['pKa_prospector']
3456,Oc1ccc2cc(Br)ccc2c1Br,O,0,0,7.79,['7.79'],['pKa_prospector']
3457,Nc1ccc(Br)cc1Br,O,0,0,2.3,['2.30'],['pKa_prospector']
3458,Brc1ccc(N(CC2CC2)C2=[NH+]CCN2)c(Br)c1,O,0,0,11.2,['11.20'],['pKa_prospector']
3459,Oc1ccc(Br)cc1Br,O,0,0,7.68,['7.68'],['pKa_prospector']
3460,Brc1ccc(Br)c(N(CC2CC2)C2=[NH+]CCN2)c1,O,0,0,11,['11.00'],['pKa_prospector']
3461,N#Cc1ccc(NN=C(C(F)(F)F)C(F)(F)F)c([N+](=O)[O-])c1,O,0,0,7.03,['7.03'],['pKa_prospector']
3462,Nc1ccc(C(=O)[O-])cc1Br,O,0,0,4.24,['4.24'],['pKa_prospector']
3463,O=C([O-])c1ccc(Cl)c(Cl)c1,O,0,0,3.68,['3.68'],['pKa_prospector']
3464,Nc1ccc(C(=O)[O-])cc1Cl,O,0,0,4.35,['4.35'],['pKa_prospector']
3465,Nc1ccc(C(=O)[O-])cc1F,O,0,0,4.35,['4.35'],['pKa_prospector']
3466,Nc1ccc(C(=O)[O-])cc1I,O,0,0,4.34,['4.34'],['pKa_prospector']
3467,O=C([O-])c1ccc([N+](=O)[O-])c([N+](=O)[O-])c1,O,0,0,2.82,['2.82'],['pKa_prospector']