,Solute SMILES,Solvent SMILES,Solute CAS,Solute IUPAC,pKa (avg),pKa (all),Source
1851,CCn1c(=O)c2[nH]c(CCCN3CC[NH+](C(c4ccccc4)c4ccccc4)CC3)nc2n(CC(C)C)c1=O,O,0,0,6.9,['6.90'],['pKa_prospector']
1852,CCn1c(=O)c2c(nc(CCCN3CC[NH+](C(c4ccccc4)c4ccccc4)CC3)n2C)n(CC(C)C)c1=O,O,0,0,6.2,['6.20'],['pKa_prospector']
1853,CCn1c(=O)nc2sc(S(N)(=O)=O)nn2c1=O,O,0,0,7.3,['7.30'],['pKa_prospector']
1854,CCn1c(N)nc(N)nc1=N,O,0,0,10.54,['10.54'],['pKa_prospector']
1855,CCn1nc(C(=O)[O-])c(=O)c2cc3c(cc21)OCO3,O,0,0,4.7,['4.70'],['pKa_prospector']
1856,CCn1cc(C(=O)[O-])c(=O)c2ccc(C)nc21,O,0,0,6.1,['6.10'],['pKa_prospector']
1857,CCn1ccc([N-]S(=O)(=O)c2ccc(N)cc2)nc1=O,O,0,0,6.9,['6.90'],['pKa_prospector']
1858,CCn1cnc2ccccc21,O,0,0,5.59,['5.59'],['pKa_prospector']
1859,CN(C)C(=O)[N-]S(=O)(=O)c1ccccc1,O,0,0,4.71,['4.71'],['pKa_prospector']
1860,CN(C)C(=O)Nc1cccc(C(F)(F)F)c1,O,0,0,-1,['-1.00'],['pKa_prospector']
1861,CN(C)C(=O)n1cc(F)c(=O)[nH]c1=O,O,0,0,6.7,['6.70'],['pKa_prospector']
1862,C[NH+](C)C1CCCCC1O,O,0,0,10.32,['10.32'],['pKa_prospector']
1863,C[NH+](C)C1CCc2ccccc2C1,O,0,0,9.5,['9.50'],['pKa_prospector']
1864,COC(C(=O)C[NH+](C)C)(c1ccccc1)c1ccccc1,O,0,0,7.37,['7.37'],['pKa_prospector']
1865,C#CCOC(C(=O)C[NH+](C)C)(c1ccccc1)c1ccccc1,O,0,0,6.94,['6.94'],['pKa_prospector']
1866,C[NH+](C)CC(=O)C(OCc1ccccc1)(c1ccccc1)c1ccccc1,O,0,0,7.08,['7.08'],['pKa_prospector']
1867,C[NH+](C)CC(=O)C(Oc1ccccc1)(c1ccccc1)c1ccccc1,O,0,0,7.26,['7.26'],['pKa_prospector']
1868,C[NH+](C)CC(=O)NCc1ccccc1,O,0,0,7.62,['7.62'],['pKa_prospector']
1869,C[NH+](C)CC(=O)c1ccccc1,O,0,0,8.04,['8.04'],['pKa_prospector']
1870,CN(C)CC(CN1c2ccccc2Sc2ccccc21)[NH+](C)C,O,0,0,9.8,['9.80'],['pKa_prospector']
1871,COc1ccc(C(O)C[NH+](C)C)cc1,O,0,0,8.81,['8.81'],['pKa_prospector']
1872,COc1cccc(C(O)C[NH+](C)C)c1,O,0,0,8.76,['8.76'],['pKa_prospector']
1873,C[NH+](C)CC(O)c1ccccc1,O,0,0,8.81,['8.81'],['pKa_prospector']
1874,C[NH+](C)CC1=C([O-])C(=O)c2ccccc2C1=O,O,0,0,2.32,['2.32'],['pKa_prospector']
1875,C[NH+](C)CC=C(c1ccc(Br)cc1)c1cccnc1,O,0,0,8.74,['8.74'],['pKa_prospector']
1876,C[NH+](C)CCC(=O)C(c1ccccc1)c1ccccc1,O,0,0,8.71,['8.71'],['pKa_prospector']
1877,C[NH+](C)CCC(c1ccc(Br)cc1)c1ccccn1,O,0,0,9.55,['9.55'],['pKa_prospector']
1878,C[NH+](C)CCC(c1ccc(Cl)cc1)c1ccccn1,O,0,0,9.15,['9.15'],['pKa_prospector']
1879,C[NH+](C)CCC(C(=O)c1ccccc1)(c1ccccc1)c1ccccc1,O,0,0,9.47,['9.47'],['pKa_prospector']
1880,C[NH+](C)CCC(C(N)=O)(c1ccccc1)c1ccccn1,O,0,0,5.4,['5.40'],['pKa_prospector']
1881,C[NH+](C)CCC(C(=O)Cc1ccccc1)c1ccccc1,O,0,0,8.99,['8.99'],['pKa_prospector']
1882,C[NH+](C)CCC(c1ccccc1)c1ccccc1,O,0,0,9.35,['9.35'],['pKa_prospector']
1883,C[NH+](C)CCC=C1c2ccccc2CCc2cccc(Cl)c21,O,0,0,9.4,['9.40'],['pKa_prospector']
1884,C[NH+](C)CCC=C1c2ccccc2CCc2ccccc21,O,0,0,9.41,['9.41'],['pKa_prospector']
1885,C[NH+](C)CCC=C1c2ccccc2COc2ccccc21,O,0,0,8,['8.00'],['pKa_prospector']
1886,C[NH+](C)CCC=C1c2ccccc2CSc2ccccc21,O,0,0,9.25,['9.25'],['pKa_prospector']
1887,C[NH+](C)CCC=C1c2ccccc2Sc2ccc(Cl)cc21,O,0,0,7.85,['7.85'],['pKa_prospector']
1888,C[NH+](C)CCCC(=O)C(CC[NH+](C)C)c1ccccc1,O,0,0,8.9,['8.90'],['pKa_prospector']
1889,C[NH+](C)CCCN1c2ccccc2CCc2ccc(Cl)cc21,O,0,0,9.09,['9.09'],['pKa_prospector']
1890,C[NH+](C)CCCN1c2ccccc2CCc2ccccc21,O,0,0,9.43,['9.43'],['pKa_prospector']
1891,C[NH+](C)CCCN1c2ccccc2Sc2ccc(C(F)(F)F)cc21,O,0,0,9.11,['9.11'],['pKa_prospector']
1892,C[NH+](C)CCCN1c2ccccc2Sc2ccc(Cl)cc21,O,0,0,9.27,['9.27'],['pKa_prospector']
1893,COc1ccc2c(c1)N(CCC[NH+](C)C)c1ccccc1S2,O,0,0,9.2,['9.20'],['pKa_prospector']
1894,C[NH+](C)CCCN1c2ccccc2Sc2ccccc21,O,0,0,9.38,['9.38'],['pKa_prospector']
1895,C[NH+](C)CCCNC(=O)c1ccccc1,O,0,0,9.34,['9.34'],['pKa_prospector']
1896,COc1ccccc1C(=O)NCCC[NH+](C)C,O,0,0,9.26,['9.26'],['pKa_prospector']
1897,C[NH+](C)CCCSC(=NO)C(=O)c1ccc(Br)cc1,O,0,0,7.41,['7.41'],['pKa_prospector']
1898,COc1ccc(C(=O)C(=NO)SCCC[NH+](C)C)cc1,O,0,0,8.42,['8.42'],['pKa_prospector']
1899,COc1cccc(CCC[NH+](C)C)c1,O,0,0,9.54,['9.54'],['pKa_prospector']
1900,C[NH+](C)CCCc1ccccc1,O,0,0,9.52,['9.52'],['pKa_prospector']
1901,C[NH+](C)CCCn1c2c(c3ccccc31)CCCCCC2,O,0,0,8.2,['8.20'],['pKa_prospector']
1902,C[NH+](C)CCN(Cc1ccc(Cl)s1)c1ccccn1,O,0,0,8.41,['8.41'],['pKa_prospector']
1903,C[NH+](C)CCN(Cc1cccs1)c1ccccc1,O,0,0,8.24,['8.24'],['pKa_prospector']
1904,C[NH+](C)CCN1c2ccccc2Sc2ccc(Cl)cc21,O,0,0,7.8,['7.80'],['pKa_prospector']
1905,C[NH+](C)CCN1c2ccccc2Sc2ccccc21,O,0,0,8.66,['8.66'],['pKa_prospector']
1906,C[NH+](C)CCNC(=O)c1cc2cc(S(N)(=O)=O)sc2s1,O,0,0,7.48,['7.48'],['pKa_prospector']
1907,C[NH+](C)CCNC(=O)c1ccccc1,O,0,0,8.5,['8.50'],['pKa_prospector']
1908,COc1ccccc1C(=O)NCC[NH+](C)C,O,0,0,8.56,['8.56'],['pKa_prospector']
1909,C[NH+](C)CCOC(=O)C(c1ccccc1)C1(O)CCCC1,O,0,0,7.93,['7.93'],['pKa_prospector']
1910,C[NH+](C)CCOC(c1ccc(Br)cc1)c1ccc(Br)cc1,O,0,0,8.64,['8.64'],['pKa_prospector']
1911,C[NH+](C)CCOC(c1ccc(Cl)cc1)c1ccccn1,O,0,0,8.1,['8.10'],['pKa_prospector']
1912,C[NH+](C)CCOC(c1ccccc1)c1ccccc1,O,0,0,8.92,['8.92'],['pKa_prospector']
1913,COc1cc(C(=O)NCc2ccc(OCC[NH+](C)C)cc2)cc(OC)c1OC,O,0,0,8.53,['8.53'],['pKa_prospector']
1914,C[NH+](C)CCOc1ccccc1Cc1ccccc1,O,0,0,9.1,['9.10'],['pKa_prospector']
1915,C[NH+](C)CCSC(=NO)C(=O)c1ccc(Br)cc1,O,0,0,7.36,['7.36'],['pKa_prospector']
1916,C[NH+](C)CCSC(=NO)C(=O)c1ccc(Cl)cc1,O,0,0,7.57,['7.57'],['pKa_prospector']
1917,C[NH+](C)CCSC(=NO)C(=O)c1ccc(F)cc1,O,0,0,7.54,['7.54'],['pKa_prospector']
1918,COc1ccc(C(=O)C(=NO)SCC[NH+](C)C)cc1,O,0,0,7.88,['7.88'],['pKa_prospector']
1919,C[NH+](C)CCSC(=NO)C(=O)c1ccc2ccccc2c1,O,0,0,7.1,['7.10'],['pKa_prospector']
1920,C[NH+](C)CCc1c[nH]c2ccccc12,O,0,0,9.8,['9.80'],['pKa_prospector']
1921,COc1ccc(CC[NH+](C)C)cc1OC,O,0,0,9.15,['9.15'],['pKa_prospector']
1922,COc1ccc(CC[NH+](C)C)cc1,O,0,0,9.24,['9.24'],['pKa_prospector']
1923,COc1cccc(CC[NH+](C)C)c1,O,0,0,9.07,['9.07'],['pKa_prospector']
1924,C[NH+](C)CCc1ccccc1,O,0,0,9.19,['9.19'],['pKa_prospector']
1925,C[NH+](C)CCc1csc2ccccc12,O,0,0,9.09,['9.09'],['pKa_prospector']
1926,C[NH+](C)Cc1ccc(C(=O)OCn2ncc3c(=O)[nH]cnc32)cc1,O,0,0,7.65,['7.65'],['pKa_prospector']
1927,COc1ccc(C[NH+](C)C)cc1,O,0,0,9.13,['9.13'],['pKa_prospector']
1928,C[NH+](C)Cc1ccc(CSCCNc2nc(=O)c(Cc3ccc4ccccc4c3)c[nH]2)o1,O,0,0,8.18,['8.18'],['pKa_prospector']
1929,C[NH+](C)Cc1ccc(CSCCNc2[nH]cc(Cc3ccccc3)c2[N+](=O)[O-])o1,O,0,0,8.18,['8.18'],['pKa_prospector']
1930,C[NH+](C)Cc1ccc(CSCCNc2[nH]ccc2[N+](=O)[O-])o1,O,0,0,8.18,['8.18'],['pKa_prospector']
1931,C[NH+](C)Cc1ccc(-c2cccc(Nc3[nH]ccc3[N+](=O)[O-])c2)o1,O,0,0,8.18,['8.18'],['pKa_prospector']
1932,COc1cccc(C[NH+](C)C)c1,O,0,0,8.78,['8.78'],['pKa_prospector']
1933,C[NH+](C)Cc1ccccc1,O,0,0,8.86,['8.86'],['pKa_prospector']
1934,C[NH+](C)N=C(N)C(F)(F)C(F)(F)C(F)(F)C(F)(F)C(F)(F)F,O,0,0,3.82,['3.82'],['pKa_prospector']
1935,C[NH+](C)N=C(N)C(F)(F)C(F)(F)C(F)(F)F,O,0,0,3.83,['3.83'],['pKa_prospector']
1936,C[NH+](C)N=C(N)C(F)(F)C(F)(F)F,O,0,0,3.86,['3.86'],['pKa_prospector']
1937,C[NH+](C)N=C(N)C(F)(F)F,O,0,0,3.97,['3.97'],['pKa_prospector']
1938,CN(C)N=Nc1[nH]cnc1C(N)=O,O,0,0,4.42,['4.42'],['pKa_prospector']
1939,CN(C)N=Nc1cccc(C(=O)[O-])c1,O,0,0,4.37,['4.37'],['pKa_prospector']
1940,CN(C)S(=O)(=O)c1ccc(C(=O)[O-])cc1,O,0,0,3.3,['3.30'],['pKa_prospector']
1941,CN(C)c1nc(=O)cc([O-])[nH]1,O,0,0,1.45,['1.45'],['pKa_prospector']
1942,CN(C)c1nc2ccc3c(c2[nH]1)CCCC3,O,0,0,7.54,['7.54'],['pKa_prospector']
1943,CN(C)c1nc2cc3c(cc2[nH]1)CCCC3,O,0,0,7.61,['7.61'],['pKa_prospector']
1944,CN(C)c1c(Cl)cc([N+](=O)[O-])cc1Cl,O,0,0,-0.23,['-0.23'],['pKa_prospector']
1945,CN(C)c1c([N+](=O)[O-])cc([N+](=O)[O-])cc1[N+](=O)[O-],O,0,0,-4.85,['-4.85'],['pKa_prospector']
1946,CN(C)c1nc(=O)n(C2CC(O)C(CO)O2)cc1F,O,0,0,1.89,['1.89'],['pKa_prospector']
1947,CN(C)c1ncnc2nccnc12,O,0,0,4.3,['4.30'],['pKa_prospector']
1948,CN(C)c1cc(Cl)ncn1,O,0,0,2.42,['2.42'],['pKa_prospector']
1949,CN(C)c1cc(N(C)C)ncn1,O,0,0,6.34,['6.34'],['pKa_prospector']
1950,COc1cc(N(C)C)ncn1,O,0,0,4.27,['4.27'],['pKa_prospector']
1951,CN(C)c1cc[nH]c(=O)n1,O,0,0,4.21,['4.21'],['pKa_prospector']
1952,CN(C)c1ccc(Br)cc1,O,0,0,3.88,['3.88'],['pKa_prospector']
1953,CN(C)c1ccc(C#N)cc1,O,0,0,1.78,['1.78'],['pKa_prospector']
1954,CN(C)c1ccc(C(=N)c2ccc(N(C)C)cc2)cc1,O,0,0,10.71,['10.71'],['pKa_prospector']
1955,CN(C)c1ccc(C(N)=[NH+]O)cc1,O,0,0,14.15,['14.15'],['pKa_prospector']
1956,COC(=O)c1ccc(N(C)C)cc1,O,0,0,2.52,['2.52'],['pKa_prospector']
1957,CN(C)c1ccc(C(F)(F)F)cc1,O,0,0,2.67,['2.67'],['pKa_prospector']
1958,CN(C)c1ccc(C([NH3+])(O)c2ccc(N(C)C)cc2)cc1,O,0,0,9.78,['9.78'],['pKa_prospector']
1959,CN(C)c1ccc(C(O)(c2ccc(N(C)C)cc2)c2ccc(N(C)C)cc2)cc1,O,0,0,9.36,['9.36'],['pKa_prospector']
1960,CN(C)c1ccc(C(O)(c2ccc(N(C)C)cc2)c2cccc(Br)c2)cc1,O,0,0,6.23,['6.23'],['pKa_prospector']
1961,CN(C)c1ccc(C(O)c2ccc(N(C)C)cc2)cc1,O,0,0,5.61,['5.61'],['pKa_prospector']
1962,CN(C)c1ccc(C(O)(c2ccccc2)c2ccc(N(C)C)cc2)cc1,O,0,0,6.9,['6.90'],['pKa_prospector']
1963,CN(C)c1ccc(C(O)(c2ccccc2)c2ccccc2)cc1,O,0,0,4.75,['4.75'],['pKa_prospector']
1964,CN(C)c1ccc(C2([NH+]3CCCCC3)CCCCC2)cc1,O,0,0,9.05,['9.05'],['pKa_prospector']
1965,CN(C)c1ccc(C2=C[NH+]3CCC2CC3)cc1,O,0,0,9.39,['9.39'],['pKa_prospector']
1966,CN(C)c1ccc(C2C[NH+]3CCC2CC3)cc1,O,0,0,10.29,['10.29'],['pKa_prospector']
1967,CN(C)c1ccc(Cl)cc1,O,0,0,3.87,['3.87'],['pKa_prospector']
1968,CN(C)c1ccc(F)cc1,O,0,0,4.01,['4.01'],['pKa_prospector']
1969,CN(C)c1ccc(I)cc1,O,0,0,3.43,['3.43'],['pKa_prospector']
1970,CN(C)c1ccc(N)cc1,O,0,0,6.59,['6.59'],['pKa_prospector']
1971,CN(C)c1ccc([N+](=O)[O-])cc1,O,0,0,0.61,['0.61'],['pKa_prospector']
1972,CN(C)c1ccc(N=Nc2ccc(C(=O)[O-])cc2)cc1,O,0,0,2.35,['2.35'],['pKa_prospector']
1973,CN(C)c1ccc(N=Nc2ccc(S(=O)(=O)[O-])cc2)cc1,O,0,0,3.37,['3.37'],['pKa_prospector']
1974,CN(C)c1ccc(N=Nc2cccc(C(=O)[O-])c2)cc1,O,0,0,2.64,['2.64'],['pKa_prospector']
1975,CN(C)c1ccc(N=O)cc1,O,0,0,4.54,['4.54'],['pKa_prospector']
1976,COc1ccc(N(C)C)cc1,O,0,0,5.49,['5.49'],['pKa_prospector']
1977,CN(C)c1ccc(S(N)(=O)=O)cc1,O,0,0,1.54,['1.54'],['pKa_prospector']
1978,CN(C)c1ccc([N+](=O)[O-])cc1[N+](=O)[O-],O,0,0,-1,['-1.00'],['pKa_prospector']
1979,CN(C)c1ccc2c(c1)C(c1ccccc1)=NCC(=O)N2,O,0,0,4.6,['4.60'],['pKa_prospector']
1980,CN(C)c1ccc2cc3c(ccc4ccccc43)nc2c1,O,0,0,7.28,['7.28'],['pKa_prospector']
1981,CN(C)c1ccc2ccccc2c1,O,0,0,4.57,['4.57'],['pKa_prospector']
1982,CN(C)c1cccc(Br)c1,O,0,0,3.08,['3.08'],['pKa_prospector']
1983,CN(C)c1cccc(C#N)c1,O,0,0,2.97,['2.97'],['pKa_prospector']
1984,COC(=O)c1cccc(N(C)C)c1,O,0,0,3.86,['3.86'],['pKa_prospector']
1985,CN(C)c1cccc(C(F)(F)F)c1,O,0,0,3.27,['3.27'],['pKa_prospector']
1986,CN(C)c1cccc(Cl)c1,O,0,0,3.46,['3.46'],['pKa_prospector']
1987,CN(C)c1cccc([N+](=O)[O-])c1,O,0,0,2.63,['2.63'],['pKa_prospector']
1988,CN(C)c1cccc(Nc2ccccc2C(=O)[O-])c1,O,0,0,5.83,['5.83'],['pKa_prospector']
1989,CN(C)c1cccc(O)c1,O,0,0,10.04,['10.04'],['pKa_prospector']
1990,CN(C)c1cccc2ccccc12,O,0,0,4.83,['4.83'],['pKa_prospector']
1991,CN(C)c1ccccc1Br,O,0,0,4.31,['4.31'],['pKa_prospector']
1992,COC(=O)c1ccccc1N(C)C,O,0,0,3.78,['3.78'],['pKa_prospector']
1993,COc1ccccc1N(C)C,O,0,0,5.49,['5.49'],['pKa_prospector']
1994,CN(C)c1ccn(C2OC(CO)C(O)C2O)c(=O)n1,O,0,0,3.58,['3.58'],['pKa_prospector']
1995,CN(C)c1ccn(C2CC(O)C(CO)O2)c(=O)n1,O,0,0,3.75,['3.75'],['pKa_prospector']
1996,CN(C)c1ccnc(N)n1,O,0,0,7.94,['7.94'],['pKa_prospector']
1997,CN(C)c1ccnc(O)n1,O,0,0,4.21,['4.21'],['pKa_prospector']
1998,COc1nccc(N(C)C)n1,O,0,0,6.13,['6.13'],['pKa_prospector']
1999,CN(C)c1cnc2ncncc2n1,O,0,0,4.29,['4.29'],['pKa_prospector']
2000,CN(C)c1cnc2ccccc2n1,O,0,0,3.69,['3.69'],['pKa_prospector']
2001,CN(C)c1cnc2cncnc2n1,O,0,0,2.5,['2.50'],['pKa_prospector']
2002,CN(C)c1nc2c(c(C(=O)[O-])n1)N=C(O)CN2,O,0,0,7.31,['7.31'],['pKa_prospector']
2003,CN(C)c1nc(O)cc(O)n1,O,0,0,1.45,['1.45'],['pKa_prospector']
2004,CN(C)c1nc(N(C)C)nc(N(C)C)n1,O,0,0,10.3,['10.30'],['pKa_prospector']
2005,CN(C)c1ncc2nccnc2n1,O,0,0,3,['3.00'],['pKa_prospector']
2006,C#CC[NH+](C)Cc1ccc(Cl)cc1Cl,O,0,0,5.8,['5.80'],['pKa_prospector']
2007,C#CC[NH+](C)Cc1ccccc1,O,0,0,6.76,['6.76'],['pKa_prospector']
2008,C[NH+](CC(O)COc1ccccc1)CC(O)COc1ccccc1,O,0,0,8,['8.00'],['pKa_prospector']
2009,C[NH+](CCC(C(N)=O)(c1ccccc1)c1ccccn1)Cc1ccccc1,O,0,0,6.9,['6.90'],['pKa_prospector']
2010,C[NH+](CCO)CCCC(=O)Cc1ccccc1,O,0,0,9.36,['9.36'],['pKa_prospector']
2011,C[NH+](CCO)CCCC(=O)c1ccccc1,O,0,0,8.98,['8.98'],['pKa_prospector']
2012,C[NH+](CCO)CCCC(=O)c1cccs1,O,0,0,9.51,['9.51'],['pKa_prospector']
2013,C[NH+](CCCl)CCCl,O,0,0,6.43,['6.43'],['pKa_prospector']
2014,C[NH+](CCO)CCCl,O,0,0,7.48,['7.48'],['pKa_prospector']
2015,COc1cc(S(=O)(=O)CCN(C)Cc2ccccc2)cc(OC)c1OC,O,0,0,5.98,['5.98'],['pKa_prospector']
2016,C[NH+](Cc1cc(Br)cc(Br)c1N)C1CCCCC1,O,0,0,8.5,['8.50'],['pKa_prospector']
2017,CN(Cc1ccccc1)N=Nc1[nH]cnc1C(N)=O,O,0,0,4.14,['4.14'],['pKa_prospector']
2018,CN(C1=[NH+]CCN1)c1c(Br)cccc1Br,O,0,0,10.7,['10.70'],['pKa_prospector']
2019,CN(C(N)=[NH2+])c1ccc(Cl)cc1,O,0,0,12.6,['12.60'],['pKa_prospector']
2020,CN(c1ccccc1)C1CCCC1,O,0,0,6.71,['6.71'],['pKa_prospector']
2021,CN(c1ccccc1)C1CCCCC1,O,0,0,6.35,['6.35'],['pKa_prospector']
2022,CN(C(=O)c1ccccc1)c1ccccn1,O,0,0,1.44,['1.44'],['pKa_prospector']
2023,CN(c1ccccn1)S(C)(=O)=O,O,0,0,1.73,['1.73'],['pKa_prospector']
2024,CN(C(=O)c1ccccc1)c1cccnc1,O,0,0,3.66,['3.66'],['pKa_prospector']
2025,CN(c1cccnc1)S(C)(=O)=O,O,0,0,3.94,['3.94'],['pKa_prospector']
2026,CN(C(=O)c1ccccc1)c1cc[nH+]cc1,O,0,0,4.68,['4.68'],['pKa_prospector']
2027,CN(c1cc[nH+]cc1)S(C)(=O)=O,O,0,0,5.14,['5.14'],['pKa_prospector']
2028,CN1C(C(=O)Nc2ccccn2)=C(O)c2ccccc2S1(=O)=O,O,0,0,6.3,['6.30'],['pKa_prospector']
2029,C=CCC1(C2C=CCC2)C(=O)NC(=O)N(C)C1=O,O,0,0,8.26,['8.26'],['pKa_prospector']
2030,C=CCC1(CC(=C)Br)C(=O)NC(=O)N(C)C1=O,O,0,0,7.9,['7.90'],['pKa_prospector']
2031,C=CCC1(CC=C)C(=O)NC(=O)N(C)C1=O,O,0,0,7.69,['7.69'],['pKa_prospector']
2032,CN1C(=O)C(c2ccccc2)SC1=[NH+]O,O,0,0,11.53,['11.53'],['pKa_prospector']
2033,CN1C(=O)C2(CCCCC2)NC1=S,O,0,0,11.23,['11.23'],['pKa_prospector']
2034,CN1C(=O)CC(=O)N(C)C1=O,O,0,0,4.68,['4.68'],['pKa_prospector']
2035,CN1C(=O)CC(=O)NC1=O,O,0,0,4.14,['4.14'],['pKa_prospector']
2036,CN1C(=S)NC(=O)C12CCCCC2,O,0,0,9.25,['9.25'],['pKa_prospector']
2037,CN1C(=O)N(C2OC(CO)C(O)C2O)C=CC1[NH3+],O,0,0,8.7,['8.70'],['pKa_prospector']
2038,CN1C(=O)CCC1c1cccnc1,O,0,0,4.44,['4.44'],['pKa_prospector']
2039,CN1C(CCl)Nc2cc(Cl)c(S(N)(=O)=O)cc2S1(=O)=O,O,0,0,9.55,['9.55'],['pKa_prospector']
2040,CN1C(CSCC(F)(F)F)Nc2cc(Cl)c(S(N)(=O)=O)cc2S1(=O)=O,O,0,0,9.8,['9.80'],['pKa_prospector']
2041,C[NH+]1C2CC(OC(=O)C(CO)c3ccccc3)CC1C(O)C2,O,0,0,8.8,['8.80'],['pKa_prospector']
2042,C=C(C(=O)OC1CC2C3OC3C(C1)[NH+]2C)c1ccccc1,O,0,0,7.61,['7.61'],['pKa_prospector']
2043,C[NH+]1C2CC(OC(=O)C(CO)c3ccccc3)CC1C1OC12,O,0,0,7.62,['7.62'],['pKa_prospector']
2044,C[NH+]1C2CC(OC(=O)C3(c4ccccc4)CO3)CC1C1OC12,O,0,0,7.65,['7.65'],['pKa_prospector']
2045,C[NH+]1C2CC3CC1C(O3)C2O,O,0,0,8.2,['8.20'],['pKa_prospector']
2046,C[NH+]1C2CCC1(C(=O)c1ccccc1)C(C(=O)[O-])C(O)C2,O,0,0,8.65,['8.65'],['pKa_prospector']
2047,C[NH+]1C2CCC1C(C(=O)[O-])C(O)C2,O,0,0,10.3,['10.30'],['pKa_prospector']
2048,COC(=O)C1C(O)CC2CCC1[NH+]2C,O,0,0,8.66,['8.66'],['pKa_prospector']
2049,C[NH+]1C2CCC1C(C(=O)[O-])C(OC(=O)c1ccccc1)C2,O,0,0,11.8,['11.80'],['pKa_prospector']
2050,COC(=O)C1C(OC(=O)c2ccccc2)CC2CCC1[NH+]2C,O,0,0,8.54,['8.54'],['pKa_prospector']
2051,C[NH+]1C2CCC1CC(O)C2,O,0,0,10.33,['10.33'],['pKa_prospector']
2052,C[NH+]1C2CCC1CC(OC(=O)C(CO)c1ccccc1)C2,O,0,0,9.59,['9.59'],['pKa_prospector']
2053,C[NH+]1C2CCC1CC(OC(=O)C(O)c1ccccc1)C2,O,0,0,9.7,['9.70'],['pKa_prospector']
2054,C[NH+]1C2CCC1CC(OC(=O)c1ccccc1)C2,O,0,0,9.88,['9.88'],['pKa_prospector']
2055,C[NH+]1C2C=CC1(OC(=O)C(CO)c1ccccc1)CCC2,O,0,0,7.61,['7.61'],['pKa_prospector']
2056,C[NH+]1C=CCC1c1cccnc1,O,0,0,7.04,['7.04'],['pKa_prospector']
2057,CN1C=[NH+]c2ccccc2C1O,O,0,0,7.62,['7.62'],['pKa_prospector']
2058,COC1c2ccccc2[NH+]=CN1C,O,0,0,7.66,['7.66'],['pKa_prospector']
2059,CN1CC(CC[NH+](C)C)Oc2ncccc2C1=S,O,0,0,8.84,['8.84'],['pKa_prospector']
2060,C=CC12C[NH+](C)C3C4COC(CC41)C1(C(=O)Nc4ccccc41)C32,O,0,0,9.79,['9.79'],['pKa_prospector']
2061,C[NH+]1CC2(c3ccccc3)C[NH+](C)CC(c3ccccc3)(C1)C2=O,O,0,0,9.38,['9.38'],['pKa_prospector']
2062,C[NH+]1CCC(=C(c2ccc(Cl)cc2)c2ccccn2)CC1,O,0,0,8.78,['8.78'],['pKa_prospector']
2063,C[NH+]1CCC(=C2c3ccccc3C=Cc3ccccc32)CC1,O,0,0,8.87,['8.87'],['pKa_prospector']
2064,C[NH+]1CCC(=C2c3ccccc3CCc3sccc32)CC1,O,0,0,6.95,['6.95'],['pKa_prospector']
2065,C[NH+]1CCC(=C2c3ccccc3CCc3cccnc32)CC1,O,0,0,9.3,['9.30'],['pKa_prospector']
2066,C[NH+]1CCC(c2ccccc2)(c2ccccc2)CC1,O,0,0,8.65,['8.65'],['pKa_prospector']
2067,C[NH+]1CCC(N(Cc2ccccc2)c2ccccc2)CC1,O,0,0,8.04,['8.04'],['pKa_prospector']
2068,C[NH+]1CCC(N(Cc2cccs2)c2ccccc2)CC1,O,0,0,8.39,['8.39'],['pKa_prospector']
2069,C[NH+]1CCC(OC(c2ccccc2)c2ccccc2)CC1,O,0,0,8.9,['8.90'],['pKa_prospector']
2070,C[NH+]1CCC23CCCCC2C1Cc1ccc(O)cc13,O,0,0,9.28,['9.28'],['pKa_prospector']
2071,COc1ccc2c(c1)C13CCCCC1C(C2)[NH+](C)CC3,O,0,0,8.3,['8.30'],['pKa_prospector']
2072,COC1=CC=C2C3Cc4ccc(OC)c5c4C2(CC[NH+]3C)C1O5,O,0,0,8.08,['8.08'],['pKa_prospector']
2073,COc1ccc2c3c1OC1C(=O)CCC4(O)C(C2)[NH+](C)CCC314,O,0,0,8.75,['8.75'],['pKa_prospector']
2074,C[NH+]1CCC23c4c5ccc(O)c4OC2C(=O)CCC3C1C5,O,0,0,7.97,['7.97'],['pKa_prospector']
2075,COc1ccc2c3c1OC1C(=O)CCC4C(C2)[NH+](C)CCC314,O,0,0,8.43,['8.43'],['pKa_prospector']
2076,COc1ccc2c3c1OC1C(O)C=CC4C(C2)[NH+](C)CCC341,O,0,0,8.17,['8.17'],['pKa_prospector']
2077,COc1ccc2c3c1OC1C(O)C=CC4C(C2O)[NH+](C)CCC341,O,0,0,7.12,['7.12'],['pKa_prospector']
2078,C[NH+]1CCC23c4c5ccc(O)c4OC2C(O)CCC3C1C5,O,0,0,9.35,['9.35'],['pKa_prospector']
2079,COc1ccc2c3c1OC1C(O)CCC4C(C2)[NH+](C)CCC341,O,0,0,8.75,['8.75'],['pKa_prospector']
2080,C[NH+]1CCC2=C(C1)C(c1ccccc1)c1ccccc12,O,0,0,8.46,['8.46'],['pKa_prospector']
2081,COc1cc(C(=O)NC2CCC3C[NH+](C)CCC3C2)cc(OC)c1OC,O,0,0,8.96,['8.96'],['pKa_prospector']
2082,C[NH+]1CCC2CC(NC(=O)c3ccc(Cl)c(Cl)c3)CCC2C1,O,0,0,8.92,['8.92'],['pKa_prospector']
2083,COc1ccc(C(=O)NC2CCC3C[NH+](C)CCC3C2)cc1OC,O,0,0,8.96,['8.96'],['pKa_prospector']
2084,C[NH+]1CCC2CC(NC(=O)c3ccc(Cl)cc3)CCC2C1,O,0,0,8.94,['8.94'],['pKa_prospector']
2085,COc1ccc(C(=O)NC2CCC3C[NH+](C)CCC3C2)cc1,O,0,0,8.84,['8.84'],['pKa_prospector']
2086,C[NH+]1CCC2CC(NC(=O)c3ccccc3)CCC2C1,O,0,0,9,['9.00'],['pKa_prospector']
2087,COc1cc(C(=O)OC2CCC3C[NH+](C)CCC3C2)cc(OC)c1OC,O,0,0,8.99,['8.99'],['pKa_prospector']
2088,C[NH+]1CCC2CC(OC(=O)c3ccc(Cl)c(Cl)c3)CCC2C1,O,0,0,8.93,['8.93'],['pKa_prospector']
2089,C[NH+]1CCC2c3ccccc3C(c3ccccc3)C2C1,O,0,0,8.66,['8.66'],['pKa_prospector']
2090,C[NH+]1CCC=C(C(=O)[O-])C1,O,0,0,9.07,['9.07'],['pKa_prospector']
2091,COC(=O)C1=CCC[NH+](C)C1,O,0,0,7.72,['7.72'],['pKa_prospector']
2092,C[NH+]1CCCC(=O)CCC1,O,0,0,8.75,['8.75'],['pKa_prospector']
2093,C[NH+]1CCCC(=O)C(O)CCC1,O,0,0,9.2,['9.20'],['pKa_prospector']
2094,C[NH+]1CCCC(C(=O)[O-])C1,O,0,0,9.7,['9.70'],['pKa_prospector']
2095,COC(=O)C1CCC[NH+](C)C1,O,0,0,8.39,['8.39'],['pKa_prospector']
2096,C[NH+]1CCCC(CN2c3ccccc3Sc3ccccc32)C1,O,0,0,9.3,['9.30'],['pKa_prospector']
2097,CN1CCCC(c2cccnc2)O1,O,0,0,4.18,['4.18'],['pKa_prospector']
2098,COc1ccc(S(N)(=O)=O)cc1C(=O)NCC1CCC[NH+]1C,O,0,0,8.73,['8.73'],['pKa_prospector']
2099,COc1ccc(C2CCC[NH+]2C)cc1,O,0,0,8.9,['8.90'],['pKa_prospector']
2100,C[NH+]1CCCC1c1ccccc1,O,0,0,8.8,['8.80'],['pKa_prospector']
2101,C[NH+]1CCCC2c3cccc4[nH]cc(c34)CC21,O,0,0,8.87,['8.87'],['pKa_prospector']
2102,C[NH+]1CCCCC(=O)C(O)CCCC1,O,0,0,9.1,['9.10'],['pKa_prospector']
2103,C[NH+]1CCCCC1CCN1c2ccccc2Sc2ccc(S(C)(=O)=O)cc21,O,0,0,9.51,['9.51'],['pKa_prospector']
2104,CSc1ccc2c(c1)N(CCC1CCCC[NH+]1C)c1ccccc1S2,O,0,0,9.58,['9.58'],['pKa_prospector']
2105,CN1CCCN2C1=[NH+]c1ccccc1C2c1ccccc1,O,0,0,8.8,['8.80'],['pKa_prospector']
2106,CN1CCCNC1=[NH+]C(c1ccccc1)c1ccccc1,O,0,0,12.14,['12.14'],['pKa_prospector']
2107,C[NH+]1CCN(C(=O)c2ccccc2)CC1,O,0,0,6.83,['6.83'],['pKa_prospector']
2108,COc1ccccc1C(=O)N1CC[NH+](C)CC1,O,0,0,6.91,['6.91'],['pKa_prospector']
2109,CN1CC[NH+](C(c2ccccc2)c2ccc(Br)cc2)CC1,O,0,0,7.97,['7.97'],['pKa_prospector']
2110,CN1CC[NH+](C(c2ccccc2)c2ccc(F)cc2)CC1,O,0,0,8.23,['8.23'],['pKa_prospector']