,Solute SMILES,Solvent SMILES,Solute CAS,Solute IUPAC,pKa (avg),pKa (all),Source
4017,Nc1ccccc1S(=O)(=O)[O-],O,0,0,2.46,['2.46'],['pKa_prospector']
4018,Clc1ccccc1N1CC[NH2+]CC1,O,0,0,9.13,['9.13'],['pKa_prospector']
4019,Clc1ccccc1[NH+]=C1NCCN1,O,0,0,9.15,['9.15'],['pKa_prospector']
4020,N#CC(C#N)=NNc1ccccc1Br,O,0,0,6.35,['6.35'],['pKa_prospector']
4021,N#CC(C#N)=NNc1ccccc1Cl,O,0,0,5.83,['5.83'],['pKa_prospector']
4022,N#CC(C#N)=NNc1ccccc1[N+](=O)[O-],O,0,0,5.8,['5.80'],['pKa_prospector']
4023,Nc1ccc(S(=O)(=O)[N-]c2ccccc2Cl)cc1,O,0,0,8.3,['8.30'],['pKa_prospector']
4024,Nc1ccc(S(=O)(=O)[N-]c2ccccc2[N+](=O)[O-])cc1,O,0,0,7.37,['7.37'],['pKa_prospector']
4025,Oc1ccccc1Br,O,0,0,8.34,['8.34'],['pKa_prospector']
4026,Oc1ccccc1I,O,0,0,8.44,['8.44'],['pKa_prospector']
4027,O=C([O-])COc1ccccc1Br,O,0,0,3.12,['3.12'],['pKa_prospector']
4028,O=C([O-])COc1ccccc1Cl,O,0,0,3.05,['3.05'],['pKa_prospector']
4029,O=C([O-])COc1ccccc1F,O,0,0,3.09,['3.09'],['pKa_prospector']
4030,O=C([O-])COc1ccccc1I,O,0,0,3.17,['3.17'],['pKa_prospector']
4031,Brc1ccccc1-c1nnn[n-]1,O,0,0,4.22,['4.22'],['pKa_prospector']
4032,Clc1ccccc1-c1nnn[n-]1,O,0,0,4.24,['4.24'],['pKa_prospector']
4033,O=C([O-])c1ccccc1-c1ccc(Br)cc1,O,0,0,3.65,['3.65'],['pKa_prospector']
4034,O=C([O-])c1ccccc1-c1ccc(C(F)(F)F)cc1,O,0,0,3.83,['3.83'],['pKa_prospector']
4035,O=C([O-])c1ccccc1-c1ccc(Cl)cc1,O,0,0,3.29,['3.29'],['pKa_prospector']
4036,NS(=O)(=O)c1nnc(-c2ccccc2Cl)s1,O,0,0,6.6,['6.60'],['pKa_prospector']
4037,O=C([O-])C#Cc1ccccc1,O,0,0,2.23,['2.23'],['pKa_prospector']
4038,[NH3+]C(=CC(=S)C(F)(F)C(F)(F)C(F)(F)C(F)(F)F)c1ccccc1,O,0,0,11.8,['11.80'],['pKa_prospector']
4039,[NH3+]C(=CC(=S)C(F)(F)C(F)(F)C(F)(F)F)c1ccccc1,O,0,0,11.6,['11.60'],['pKa_prospector']
4040,[NH3+]C(=CC(=S)C(F)(F)C(F)F)c1ccccc1,O,0,0,11.38,['11.38'],['pKa_prospector']
4041,[NH3+]C(=CC(=S)C(F)(F)F)c1ccccc1,O,0,0,11.36,['11.36'],['pKa_prospector']
4042,FC(F)(F)C(=S)C=C(Nc1ccccc1)c1ccccc1,O,0,0,9.1,['9.10'],['pKa_prospector']
4043,O=C([O-])C1CCC[NH+](CCC=C(c2ccccc2)c2ccccc2)C1,O,0,0,3.32,['3.32'],['pKa_prospector']
4044,Clc1ccc(CC(=CC[NH+]2CCCC2)c2ccccc2)cc1,O,0,0,8.8,['8.80'],['pKa_prospector']
4045,N=C(c1ccccc1)c1c(O)cc(O)cc1O,O,0,0,5.2,['5.20'],['pKa_prospector']
4046,N=C(c1ccccc1)c1ccc(O)cc1,O,0,0,6.45,['6.45'],['pKa_prospector']
4047,N=C(c1ccccc1)c1ccc(O)cc1O,O,0,0,5,['5.00'],['pKa_prospector']
4048,N=C(c1ccccc1)c1cccc(Cl)c1,O,0,0,5.69,['5.69'],['pKa_prospector']
4049,N=C(c1ccccc1)c1cccc(O)c1,O,0,0,7.08,['7.08'],['pKa_prospector']
4050,N=C(c1ccccc1)c1ccccc1,O,0,0,7.18,['7.18'],['pKa_prospector']
4051,N=C(c1ccccc1)c1ccccc1Cl,O,0,0,5.59,['5.59'],['pKa_prospector']
4052,N=C(c1ccccc1)c1ccccc1O,O,0,0,5,['5.00'],['pKa_prospector']
4053,NC(=[NH2+])NN=C(c1ccccc1)c1cccs1,O,0,0,8.5,['8.50'],['pKa_prospector']
4054,O=C(C(=NO)c1ccccc1)c1ccccc1,O,0,0,9.6,['9.60'],['pKa_prospector']
4055,ON=C(c1ccccc1)c1ccccc1,O,0,0,10.7,['10.70'],['pKa_prospector']
4056,ON=C(c1ccccc1)c1nc2ccccc2s1,O,0,0,8.07,['8.07'],['pKa_prospector']
4057,O=C(C1=C([O-])C(=O)c2ccccc2C1=O)c1ccccc1,O,0,0,2.17,['2.17'],['pKa_prospector']
4058,O=C([O-])C=CC(=O)c1ccccc1,O,0,0,3.5,['3.50'],['pKa_prospector']
4059,O=C(C=NO)c1ccccc1,O,0,0,7,['7.00'],['pKa_prospector']
4060,O=C(CC(=O)c1ccccc1)c1ccccc1,O,0,0,9.2,['9.20'],['pKa_prospector']
4061,O=C(CCCc1c[nH]cn1)c1ccccc1,O,0,0,7.35,['7.35'],['pKa_prospector']
4062,O=C(CC[NH+]1CCCCC1)c1ccccc1,O,0,0,9.61,['9.61'],['pKa_prospector']
4063,[NH3+]CC(=O)c1ccccc1,O,0,0,8.16,['8.16'],['pKa_prospector']
4064,O=C(c1ccccc1)N1CC[NH2+]CC1,O,0,0,7.75,['7.75'],['pKa_prospector']
4065,NC(=[NH2+])NC(=O)c1ccccc1,O,0,0,6.96,['6.96'],['pKa_prospector']
4066,O=C(NC1CC[NH+](CCc2c[nH]c3ccccc23)CC1)c1ccccc1,O,0,0,7.7,['7.70'],['pKa_prospector']
4067,O=C(CNC(=O)c1ccccc1)NO,O,0,0,8.8,['8.80'],['pKa_prospector']
4068,O=C([O-])CNC(=O)c1ccccc1,O,0,0,3.64,['3.64'],['pKa_prospector']
4069,[NH3+]CCCCNC(=O)c1ccccc1,O,0,0,10.34,['10.34'],['pKa_prospector']
4070,[NH3+]CCCNC(=O)c1ccccc1,O,0,0,9.92,['9.92'],['pKa_prospector']
4071,O=C(NCCCOc1cccc(C[NH+]2CCCCC2)c1)c1ccccc1,O,0,0,9,['9.00'],['pKa_prospector']
4072,[NH3+]CCNC(=O)c1ccccc1,O,0,0,9.12,['9.12'],['pKa_prospector']
4073,NC(=[NH2+])NNC(=O)c1ccccc1,O,0,0,7.94,['7.94'],['pKa_prospector']
4074,O=C(NO)c1ccccc1,O,0,0,8.75,['8.75'],['pKa_prospector']
4075,O=C(NP(=O)(N1CC1)N1CC1)c1ccccc1,O,0,0,8.32,['8.32'],['pKa_prospector']
4076,Nc1ccc(S(=O)(=O)[N-]C(=O)c2ccccc2)cc1,O,0,0,4.57,['4.57'],['pKa_prospector']
4077,O=C(Nc1n[nH]c(NC(=O)c2ccccc2)n1)c1ccccc1,O,0,0,10.21,['10.21'],['pKa_prospector']
4078,Nc1ccc(OC(=O)c2ccccc2)cc1,O,0,0,2.17,['2.17'],['pKa_prospector']
4079,O=C(c1ccccc1)c1ccc([N-]S(=O)(=O)C(F)(F)F)cc1,O,0,0,3.22,['3.22'],['pKa_prospector']
4080,O=C(c1ccccc1)c1ccc(-c2ccccc2C(=O)[O-])cc1,O,0,0,3.3,['3.30'],['pKa_prospector']
4081,O=C(c1ccccc1)c1ccc2n1CCC2C(=O)[O-],O,0,0,3.49,['3.49'],['pKa_prospector']
4082,O=C(c1ccccc1)n1c(=O)[nH]cc(F)c1=O,O,0,0,6.9,['6.90'],['pKa_prospector']
4083,NC(=CC(=S)c1ccccc1)C(F)(F)C(F)(F)C(F)(F)C(F)(F)F,O,0,0,9.7,['9.70'],['pKa_prospector']
4084,NC(=CC(=S)c1ccccc1)C(F)(F)C(F)(F)C(F)(F)C(F)F,O,0,0,9.8,['9.80'],['pKa_prospector']
4085,NC(=CC(=S)c1ccccc1)C(F)(F)C(F)F,O,0,0,9.8,['9.80'],['pKa_prospector']
4086,NC(=CC(=S)c1ccccc1)C(F)(F)F,O,0,0,9.29,['9.29'],['pKa_prospector']
4087,NC(=CC(=S)c1ccccc1)C(F)F,O,0,0,10,['10.00'],['pKa_prospector']
4088,O=C([O-])C(Br)c1ccccc1,O,0,0,2.21,['2.21'],['pKa_prospector']
4089,O=C([O-])C(O)c1ccccc1,O,0,0,3.4,['3.40'],['pKa_prospector']
4090,O=C([O-])C(Cl)C(O)c1ccccc1,O,0,0,2.61,['2.61'],['pKa_prospector']
4091,O=C([O-])C(c1ccccc1)C(C(=O)[O-])c1ccccc1,O,0,0,3.53,['3.53'],['pKa_prospector']
4092,O=C([O-])CC(c1ccccc1)(c1ccccc1)c1ccccc1,O,0,0,6.84,['6.84'],['pKa_prospector']
4093,O=C([O-])CC(O)c1ccccc1,O,0,0,4.4,['4.40'],['pKa_prospector']
4094,NC(=O)C(CCC[NH+]1CC2CCC(CC2)C1)(c1ccccc1)c1ccccn1,O,0,0,4.68,['4.68'],['pKa_prospector']
4095,[NH3+]CCC(c1ccccc1)c1ccccn1,O,0,0,9.88,['9.88'],['pKa_prospector']
4096,NC(=O)C(CC[NH+]1C2CCC1CC2)(c1ccccc1)c1ccccn1,O,0,0,9.95,['9.95'],['pKa_prospector']
4097,NC(=O)C(CC[NH+]1CC2CCC(CC2)C1)(c1ccccc1)c1ccccn1,O,0,0,4.74,['4.74'],['pKa_prospector']
4098,N#CC(CC[NH+]1CCCCC1)(c1ccccc1)c1ccccc1,O,0,0,8.02,['8.02'],['pKa_prospector']
4099,OC(CC[NH+]1CCCCC1)(c1ccccc1)C1CC2C=CC1C2,O,0,0,8.8,['8.80'],['pKa_prospector']
4100,OC(CC[NH+]1CCCCC1)(c1ccccc1)C1CCCCC1,O,0,0,8.7,['8.70'],['pKa_prospector']
4101,c1ccc(C(CC[NH+]2CCCCC2)c2ccccc2)cc1,O,0,0,8.91,['8.91'],['pKa_prospector']
4102,N#CC(CC[NH+]1CCOCC1)(c1ccccc1)c1ccccc1,O,0,0,6.04,['6.04'],['pKa_prospector']
4103,NC(=O)C(CC[NH+]1CCOCC1)(c1ccccc1)c1ccccn1,O,0,0,6.86,['6.86'],['pKa_prospector']
4104,[NH3+]CC(O)c1ccccc1,O,0,0,8.9,['8.90'],['pKa_prospector']
4105,OC(CNc1ccccn1)c1ccccc1,O,0,0,5.85,['5.85'],['pKa_prospector']
4106,O=C(NO)C(CO)c1ccccc1,O,0,0,9.09,['9.09'],['pKa_prospector']
4107,O=C(OC1CC2CCC(C1)[NH2+]2)C(CO)c1ccccc1,O,0,0,10.28,['10.28'],['pKa_prospector']
4108,Nc1ccc(C(O)(c2ccccc2)c2ccc(N)cc2)cc1,O,0,0,5.38,['5.38'],['pKa_prospector']
4109,Oc1ccc(C(c2ccccc2)c2ccc(O)cc2)cc1,O,0,0,9.58,['9.58'],['pKa_prospector']
4110,OC(c1ccccc1)(c1cncnc1)c1ccc(Cl)cc1Cl,O,0,0,2.5,['2.50'],['pKa_prospector']
4111,O=C([O-])C(O)(c1ccccc1)c1ccccc1,O,0,0,3.05,['3.05'],['pKa_prospector']
4112,OC(c1ccccc1)(c1ccccc1)C1CCCC[NH2+]1,O,0,0,9.71,['9.71'],['pKa_prospector']
4113,O=C([O-])C(c1ccccc1)(c1ccccc1)c1ccccc1,O,0,0,3.96,['3.96'],['pKa_prospector']
4114,O=C([O-])CSC(c1ccccc1)(c1ccccc1)c1ccccc1,O,0,0,4.3,['4.30'],['pKa_prospector']
4115,OC(c1ccccc1)(c1ccccc1)c1ccccn1,O,0,0,3.9,['3.90'],['pKa_prospector']
4116,O=C(CC[NH+]1CCCCC1)C(c1ccccc1)c1ccccc1,O,0,0,9.45,['9.45'],['pKa_prospector']
4117,O=C(CC[NH+]1CCOCC1)C(c1ccccc1)c1ccccc1,O,0,0,6.39,['6.39'],['pKa_prospector']
4118,O=C([O-])C(c1ccccc1)c1ccccc1,O,0,0,3.94,['3.94'],['pKa_prospector']
4119,c1ccc(C(C2=[NH+]CCN2)c2ccccc2)cc1,O,0,0,9.78,['9.78'],['pKa_prospector']
4120,c1ccc(C(c2ccccc2)N2CCCN3CC[NH+]=C32)cc1,O,0,0,10.98,['10.98'],['pKa_prospector']
4121,[NH2+]=C1NCCCN1C(c1ccccc1)c1ccccc1,O,0,0,12.3,['12.30'],['pKa_prospector']
4122,NC(=O)N1CCN(C(c2ccccc2)c2ccccc2)C1=[NH2+],O,0,0,7.82,['7.82'],['pKa_prospector']
4123,c1ccc(C(c2ccccc2)N2CCN3CCC[NH+]=C32)cc1,O,0,0,11.17,['11.17'],['pKa_prospector']
4124,[NH2+]=C1NCCN1C(c1ccccc1)c1ccccc1,O,0,0,10.98,['10.98'],['pKa_prospector']
4125,c1ccc(C([NH+]=C2NCCCN2)c2ccccc2)cc1,O,0,0,12.31,['12.31'],['pKa_prospector']
4126,c1ccc(C([NH+]=C2NCCN2)c2ccccc2)cc1,O,0,0,11.09,['11.09'],['pKa_prospector']
4127,O=C1NC(=O)C(c2ccccc2)(c2ccc(O)cc2)N1,O,0,0,7.9,['7.90'],['pKa_prospector']
4128,O=C1NC(=O)C(c2ccccc2)(c2ccccc2)N1,O,0,0,8.54,['8.54'],['pKa_prospector']
4129,O=C1[N-]C(=O)C(c2ccccc2)(c2ccccc2)N1S(=O)(=O)c1ccc(Cl)cc1,O,0,0,4.77,['4.77'],['pKa_prospector']
4130,O=C1[N-]C(=O)C(c2ccccc2)(c2ccccc2)N1S(=O)(=O)c1ccc([N+](=O)[O-])cc1,O,0,0,4.6,['4.60'],['pKa_prospector']
4131,Nc1ccc(S(=O)(=O)N2C(=O)[N-]C(=O)C2(c2ccccc2)c2ccccc2)cc1,O,0,0,5.13,['5.13'],['pKa_prospector']
4132,O=C1[N-]C(=O)C(c2ccccc2)(c2ccccc2)N1S(=O)(=O)c1ccc([O-])cc1,O,0,0,5.2,['5.20'],['pKa_prospector']
4133,O=C1[N-]C(=O)C(c2ccccc2)(c2ccccc2)N1S(=O)(=O)c1ccccc1,O,0,0,4.9,['4.90'],['pKa_prospector']
4134,O=C1NC(=S)NC1(c1ccccc1)c1ccccc1,O,0,0,7.69,['7.69'],['pKa_prospector']
4135,c1ccc(C2(c3ccccc3)CN3CCCNC3=[NH+]2)cc1,O,0,0,10.86,['10.86'],['pKa_prospector']
4136,c1ccc(C2(c3ccccc3)CN3CCNC3=[NH+]2)cc1,O,0,0,8.64,['8.64'],['pKa_prospector']
4137,c1ccc(C2(c3ccccc3)C[NH+]=C3NCCCN32)cc1,O,0,0,10.75,['10.75'],['pKa_prospector']
4138,c1ccc(C2(c3ccccc3)C[NH+]=C3NCCN32)cc1,O,0,0,8.95,['8.95'],['pKa_prospector']
4139,c1ccc(C23CCC[NH+]2CCO3)cc1,O,0,0,9.06,['9.06'],['pKa_prospector']
4140,O=C1C2(c3ccccc3)C[NH+](CCO)CC1(c1ccccc1)C[NH+](CCO)C2,O,0,0,9.22,['9.22'],['pKa_prospector']
4141,O=C1C2(c3ccccc3)C[NH2+]CC1(c1ccccc1)C[NH2+]C2,O,0,0,10.25,['10.25'],['pKa_prospector']
4142,O=C1C([O-])=C(c2ccccc2)C(=O)c2ccccc21,O,0,0,4.35,['4.35'],['pKa_prospector']
4143,C1=C(c2ccccc2)[NH2+]CC1,O,0,0,6.77,['6.77'],['pKa_prospector']
4144,C1=C(c2ccccc2)C2CC[NH+]1CC2,O,0,0,9.1,['9.10'],['pKa_prospector']
4145,O=C1CN=C(c2ccccc2)c2cc([N+](=O)[O-])ccc2N1CC(O)CO,O,0,0,2.36,['2.36'],['pKa_prospector']
4146,N#Cc1ccc2c(c1)C(c1ccccc1)=NCC(=O)N2,O,0,0,2.88,['2.88'],['pKa_prospector']
4147,O=C1CN=C(c2ccccc2)c2cc(C(F)(F)F)ccc2N1,O,0,0,3.25,['3.25'],['pKa_prospector']
4148,O=C1CN=C(c2ccccc2)c2cc(Cl)ccc2N1,O,0,0,3.48,['3.48'],['pKa_prospector']
4149,O=C1CN=C(c2ccccc2)c2cc(F)ccc2N1,O,0,0,3.52,['3.52'],['pKa_prospector']
4150,Nc1ccc2c(c1)C(c1ccccc1)=NCC(=O)N2,O,0,0,4.51,['4.51'],['pKa_prospector']
4151,O=C1CN=C(c2ccccc2)c2ccccc2N1,O,0,0,4.17,['4.17'],['pKa_prospector']
4152,c1ccc(C2=[NH+]CCCN2)cc1,O,0,0,12.8,['12.80'],['pKa_prospector']
4153,c1ccc(C2=[NH+]CCN2)cc1,O,0,0,9.9,['9.90'],['pKa_prospector']
4154,O=C1[N-]C(=O)C(c2ccccc2)C1=O,O,0,0,3.28,['3.28'],['pKa_prospector']
4155,O=C1CC(=O)C(c2ccccc2)N1,O,0,0,5.78,['5.78'],['pKa_prospector']
4156,O=C1CC(=O)C(c2ccccc2)O1,O,0,0,3.22,['3.22'],['pKa_prospector']
4157,O=c1[c-](-c2ccccc2)c(=O)n(-c2ccccc2)n1-c1ccccc1,O,0,0,3.3,['3.30'],['pKa_prospector']
4158,NC1=[NH+]C(=O)C(c2ccccc2)O1,O,0,0,10.5,['10.50'],['pKa_prospector']
4159,O=C1NC(=O)C(c2ccccc2)N1,O,0,0,8.89,['8.89'],['pKa_prospector']
4160,O=C1[N-]C(=O)C(c2ccccc2)O1,O,0,0,5.46,['5.46'],['pKa_prospector']
4161,O=C1c2ccccc2C(=O)C1c1ccccc1,O,0,0,5.26,['5.26'],['pKa_prospector']
4162,[NH3+]C1CC1c1ccccc1,O,0,0,8.2,['8.20'],['pKa_prospector']
4163,c1ccc(C2CCC[NH2+]2)cc1,O,0,0,9.6,['9.60'],['pKa_prospector']
4164,c1ccc(C2C[NH+]3CCC2CC3)cc1,O,0,0,10.23,['10.23'],['pKa_prospector']
4165,O=C1CS(=O)(=O)C(c2ccccc2)N1,O,0,0,3,['3.00'],['pKa_prospector']
4166,c1ccc(C2[NH+]=C3NCCCN3c3ccccc32)cc1,O,0,0,10.79,['10.79'],['pKa_prospector']
4167,c1ccc(C2[NH+]=C3NCCN3c3ccccc32)cc1,O,0,0,9.08,['9.08'],['pKa_prospector']
4168,c1ccc(C2c3ccccc3[NH+]=C3NCCCN32)cc1,O,0,0,9.3,['9.30'],['pKa_prospector']
4169,OCCN1CCCN2C1=[NH+]c1ccccc1C2c1ccccc1,O,0,0,8.44,['8.44'],['pKa_prospector']
4170,c1ccc(C2c3ccccc3[NH+]=C3NCCN32)cc1,O,0,0,7.92,['7.92'],['pKa_prospector']
4171,O=C(C=Cc1ccccc1)N1CCCCC1,O,0,0,9.21,['9.21'],['pKa_prospector']
4172,O=C([O-])C=Cc1ccccc1,O,0,0,4.73,['4.73'],['pKa_prospector']
4173,NC(=[NH2+])NN=Cc1ccccc1,O,0,0,8.75,['8.75'],['pKa_prospector']
4174,NC(=O)NN=Cc1ccccc1,O,0,0,-1.05,['-1.05'],['pKa_prospector']
4175,NC(Cc1ccccc1)=[NH+]O,O,0,0,5.2,['5.20'],['pKa_prospector']
4176,O=C(Cc1ccccc1)C(C[NH+]1CCCCC1)c1ccccc1,O,0,0,9.11,['9.11'],['pKa_prospector']
4177,O=C(Cc1ccccc1)C(C[NH+]1CCOCC1)c1ccccc1,O,0,0,6.17,['6.17'],['pKa_prospector']
4178,O=C(Cc1ccccc1)NO,O,0,0,9.19,['9.19'],['pKa_prospector']
4179,NS(=O)(=O)NC(=O)Cc1ccccc1,O,0,0,5.42,['5.42'],['pKa_prospector']
4180,NC(=[NH+]O)C([NH3+])Cc1ccccc1,O,0,0,7.06,['7.06'],['pKa_prospector']
4181,NC(=O)C([NH3+])Cc1ccccc1,O,0,0,7.22,['7.22'],['pKa_prospector']
4182,NC(=O)CNC(=O)C([NH3+])Cc1ccccc1,O,0,0,6.72,['6.72'],['pKa_prospector']
4183,NNC(=O)C([NH3+])Cc1ccccc1,O,0,0,7.06,['7.06'],['pKa_prospector']
4184,O=C([O-])C(Br)Cc1ccccc1,O,0,0,2.78,['2.78'],['pKa_prospector']
4185,O=C([O-])C(O)Cc1ccccc1,O,0,0,3.73,['3.73'],['pKa_prospector']
4186,NC(=S)C([NH3+])Cc1ccccc1,O,0,0,7.15,['7.15'],['pKa_prospector']
4187,O=C([O-])C(Cc1ccccc1)Cc1ccccc1,O,0,0,4.57,['4.57'],['pKa_prospector']
4188,[NH3+]C(Cc1ccccc1)Cc1ccccc1,O,0,0,9.31,['9.31'],['pKa_prospector']
4189,Clc1ccc(C[NH2+]C(Cc2ccccc2)Cc2ccccc2)cc1,O,0,0,6.1,['6.10'],['pKa_prospector']
4190,O=[N+]([O-])c1ccc(C[NH2+]C(Cc2ccccc2)Cc2ccccc2)cc1,O,0,0,7.7,['7.70'],['pKa_prospector']
4191,O=C(Oc1ccc(C[NH2+]C(Cc2ccccc2)Cc2ccccc2)cc1)c1ccccc1,O,0,0,6.65,['6.65'],['pKa_prospector']
4192,c1ccc(C[NH2+]C(Cc2ccccc2)Cc2ccccc2)cc1,O,0,0,6.5,['6.50'],['pKa_prospector']
4193,c1ccc(CC23CCC[NH+]2CCO3)cc1,O,0,0,9.27,['9.27'],['pKa_prospector']
4194,O=C1C([O-])=C(Cc2ccccc2)C(=O)c2ccccc21,O,0,0,4.9,['4.90'],['pKa_prospector']
4195,C1=C(Cc2ccccc2)[NH2+]CC1,O,0,0,7.06,['7.06'],['pKa_prospector']
4196,c1ccc(CC2=[NH+]CCCN2)cc1,O,0,0,13.01,['13.01'],['pKa_prospector']
4197,c1ccc(CC2=[NH+]CCN2)cc1,O,0,0,10.3,['10.30'],['pKa_prospector']
4198,O=C1[N-]C(=O)C(Cc2ccccc2)S1,O,0,0,6.4,['6.40'],['pKa_prospector']
4199,c1ccc(CC2CCC[NH2+]2)cc1,O,0,0,10.31,['10.31'],['pKa_prospector']
4200,c1ccc(CCC(CCc2ccccc2)[NH2+]Cc2ccccc2)cc1,O,0,0,7.5,['7.50'],['pKa_prospector']
4201,c1ccc(CCC([NH2+]Cc2ccccc2)c2ccccc2)cc1,O,0,0,6.8,['6.80'],['pKa_prospector']
4202,O=C([O-])CCCc1ccccc1,O,0,0,4.76,['4.76'],['pKa_prospector']
4203,O=c1[c-](CCCc2ccccc2)c(=O)n(-c2ccccc2)n1-c1ccccc1,O,0,0,4.8,['4.80'],['pKa_prospector']
4204,[NH3+]CCCCCc1ccccc1,O,0,0,10.5,['10.50'],['pKa_prospector']
4205,[NH3+]CCCCc1ccccc1,O,0,0,10.39,['10.39'],['pKa_prospector']
4206,[NH3+]CCCc1ccccc1,O,0,0,10.24,['10.24'],['pKa_prospector']
4207,c1ccc(CCNc2ncnc3[nH]ncc23)cc1,O,0,0,4.34,['4.34'],['pKa_prospector']
4208,O=C([O-])CSCCc1ccccc1,O,0,0,3.79,['3.79'],['pKa_prospector']
4209,c1ccc(C[NH+](CC2CCCCC2)CC2CCCCC2)cc1,O,0,0,7.7,['7.70'],['pKa_prospector']
4210,c1ccc(CN(CC[NH+]2CCCC2)c2ccccc2)cc1,O,0,0,7.95,['7.95'],['pKa_prospector']
4211,NC(=O)c1nc[nH]c1N=NN(CCO)Cc1ccccc1,O,0,0,4.24,['4.24'],['pKa_prospector']
4212,Brc1cccc(Br)c1N(Cc1ccccc1)C1=[NH+]CCN1,O,0,0,10.4,['10.40'],['pKa_prospector']
4213,O=C1CC(=O)N(Cc2ccccc2)C1,O,0,0,6,['6.00'],['pKa_prospector']
4214,c1ccc(C[NH+]2CCCC2)cc1,O,0,0,9.51,['9.51'],['pKa_prospector']
4215,O=C(C[NH+]1CCCC1)NCc1ccccc1,O,0,0,8.27,['8.27'],['pKa_prospector']
4216,O=C(C[NH+]1CCCCC1)NCc1ccccc1,O,0,0,7.71,['7.71'],['pKa_prospector']
4217,O=C(C[NH+]1CCOCC1)NCc1ccccc1,O,0,0,4.98,['4.98'],['pKa_prospector']
4218,c1ccc(C[NH2+]CC(c2ccccc2)c2ccccc2)cc1,O,0,0,7.6,['7.60'],['pKa_prospector']
4219,Oc1ccc(NCc2ccccc2)cc1,O,0,0,5.1,['5.10'],['pKa_prospector']
4220,c1ccc(CNc2nnc(-c3ccccc3)s2)cc1,O,0,0,2.5,['2.50'],['pKa_prospector']
4221,O=C(OCc1ccccc1)n1c(=O)[nH]cc(F)c1=O,O,0,0,8.5,['8.50'],['pKa_prospector']
4222,Nc1nc(OCc2ccccc2)c2nccnc2n1,O,0,0,3.59,['3.59'],['pKa_prospector']
4223,Oc1ccc(OCc2ccccc2)cc1,O,0,0,10.47,['10.47'],['pKa_prospector']
4224,O=c1ccccn1OCc1ccccc1,O,0,0,-1.7,['-1.70'],['pKa_prospector']
4225,NC(=O)NS(=O)(=O)Cc1ccccc1,O,0,0,5.09,['5.09'],['pKa_prospector']
4226,O=C([O-])CSCc1ccccc1,O,0,0,3.73,['3.73'],['pKa_prospector']
4227,O=C([O-])CCSCc1ccccc1,O,0,0,4.46,['4.46'],['pKa_prospector']
4228,ON=Cc1n(COCc2ccccc2)cc[n+]1Cc1ccccc1,O,0,0,7.93,['7.93'],['pKa_prospector']
4229,O=c1c(Cc2ccccc2)c(-c2ccccc2)[nH]n1-c1ccccc1,O,0,0,7.6,['7.60'],['pKa_prospector']
4230,O=c1[nH][nH]c(Cc2ccccc2)c1-c1ccccc1,O,0,0,7.7,['7.70'],['pKa_prospector']
4231,Nc1nnnn1Cc1ccccc1,O,0,0,1.44,['1.44'],['pKa_prospector']
4232,ClCCN(CCCl)c1ccccc1,O,0,0,3.26,['3.26'],['pKa_prospector']
4233,O=NN(O)c1ccccc1,O,0,0,4.2,['4.20'],['pKa_prospector']
4234,O=c1[c-](CCS(=O)c2ccccc2)c(=O)n(-c2ccc(O)cc2)n1-c1ccccc1,O,0,0,3.1,['3.10'],['pKa_prospector']
4235,O=c1[c-](CCSc2ccccc2)c(=O)n(-c2ccc(O)cc2)n1-c1ccccc1,O,0,0,4.1,['4.10'],['pKa_prospector']
4236,O=c1[c-](C2CCCC2)c(=O)n(-c2ccccc2)n1-c1ccccc1,O,0,0,5.2,['5.20'],['pKa_prospector']
4237,O=c1[c-](C2CCCCC2)c(=O)n(-c2ccccc2)n1-c1ccccc1,O,0,0,5.7,['5.70'],['pKa_prospector']
4238,O=c1[c-](CCCSc2ccccc2)c(=O)n(-c2ccccc2)n1-c1ccccc1,O,0,0,4.2,['4.20'],['pKa_prospector']
4239,O=c1[c-](CCOc2ccccc2)c(=O)n(-c2ccccc2)n1-c1ccccc1,O,0,0,4.2,['4.20'],['pKa_prospector']
4240,O=c1[c-](CCS(=O)c2ccccc2)c(=O)n(-c2ccccc2)n1-c1ccccc1,O,0,0,2.95,['2.95'],['pKa_prospector']
4241,O=c1[c-](CCSc2ccccc2)c(=O)n(-c2ccccc2)n1-c1ccccc1,O,0,0,4.05,['4.05'],['pKa_prospector']
4242,NC1=[NH+]N(c2ccccc2)C(=O)C1,O,0,0,1.2,['1.20'],['pKa_prospector']
4243,O=c1[cH-]c(=O)n(-c2ccccc2)n1-c1ccccc1,O,0,0,4.6,['4.60'],['pKa_prospector']
4244,O=C1CC(=O)N(c2ccccc2)O1,O,0,0,3.63,['3.63'],['pKa_prospector']
4245,c1ccc(N2CCCC2)cc1,O,0,0,4.3,['4.30'],['pKa_prospector']
4246,c1ccc(N2CC[NH2+]CC2)cc1,O,0,0,9.02,['9.02'],['pKa_prospector']
4247,O=C(CCC[NH+]1CCC2(CC1)C(=O)NCN2c1ccccc1)c1ccc(F)cc1,O,0,0,8.7,['8.70'],['pKa_prospector']
4248,O=C1NCN(c2ccccc2)C12CC[NH+](CCCC(c1ccc(F)cc1)c1ccc(F)cc1)CC2,O,0,0,8.66,['8.66'],['pKa_prospector']
4249,NC(N)=[NH+]c1ccccc1,O,0,0,10.77,['10.77'],['pKa_prospector']
4250,NC(NN=Cc1ccc2ccccc2n1)=[NH+]c1ccccc1,O,0,0,7.52,['7.52'],['pKa_prospector']
4251,c1ccc([NH+]=C2NCCN2)cc1,O,0,0,10.23,['10.23'],['pKa_prospector']
4252,Clc1ccc(C=Nc2ccccc2)cc1,O,0,0,2.8,['2.80'],['pKa_prospector']
4253,Nc1ccc(N=Nc2ccccc2)cc1,O,0,0,2.82,['2.82'],['pKa_prospector']
4254,O=[N+]([O-])c1ccc(N=Nc2ccccc2)cc1,O,0,0,-3.47,['-3.47'],['pKa_prospector']
4255,c1ccc(N=Nc2ccccc2)cc1,O,0,0,-2.48,['-2.48'],['pKa_prospector']
4256,c1ccc(N=Nc2ccccn2)cc1,O,0,0,2,['2.00'],['pKa_prospector']
4257,c1ccc(N=Nc2cc[nH+]cc2)cc1,O,0,0,3.5,['3.50'],['pKa_prospector']
4258,NC(=[NH2+])Nc1ccccc1,O,0,0,10.77,['10.77'],['pKa_prospector']
4259,Nc1nc(N)nc(NC(=[NH2+])Nc2ccccc2)n1,O,0,0,8.2,['8.20'],['pKa_prospector']
4260,O=C(Nc1ccccc1)C1CNCC[NH2+]1,O,0,0,8,['8.00'],['pKa_prospector']
4261,O=C(C[NH+]1CCCCC1)Nc1ccccc1,O,0,0,7.89,['7.89'],['pKa_prospector']
4262,O=C([N-]S(=O)(=O)c1ccc(Cl)cc1)Nc1ccccc1,O,0,0,3.87,['3.87'],['pKa_prospector']
4263,O=C([N-]S(=O)(=O)c1ccc([N+](=O)[O-])cc1)Nc1ccccc1,O,0,0,3.55,['3.55'],['pKa_prospector']
4264,O=C([N-]S(=O)(=O)c1ccccc1)Nc1ccccc1,O,0,0,4.02,['4.02'],['pKa_prospector']
4265,O=C(Nc1ccccc1)Nc1ccc(CC(C[NH+]2CCCCC2)c2ccc(NC(=O)Nc3ccccc3)cc2)cc1,O,0,0,7.99,['7.99'],['pKa_prospector']
4266,O=C(Nc1ccccc1)c1c(O)cccc1O,O,0,0,6.3,['6.30'],['pKa_prospector']
4267,O=C(Nc1ccccc1)c1ccc(O)cc1O,O,0,0,6.8,['6.80'],['pKa_prospector']
4268,O=C(Nc1ccccc1)c1ccccc1O,O,0,0,7.37,['7.37'],['pKa_prospector']
4269,S=C(Nc1ccccc1)Nc1ccccc1,O,0,0,11.4,['11.40'],['pKa_prospector']
4270,c1ccc(NC2CCCC2)cc1,O,0,0,5.3,['5.30'],['pKa_prospector']
4271,c1ccc(NC2CCCCC2)cc1,O,0,0,5.6,['5.60'],['pKa_prospector']
4272,C(=CC=Nc1ccccc1)C=CNc1ccccc1,O,0,0,8.52,['8.52'],['pKa_prospector']
4273,O=S(=O)([O-])CCCNc1ccccc1,O,0,0,4.85,['4.85'],['pKa_prospector']
4274,OCCNc1ccccc1,O,0,0,4.06,['4.06'],['pKa_prospector']
4275,O=S(=O)([O-])CCNc1ccccc1,O,0,0,3.8,['3.80'],['pKa_prospector']
4276,Oc1ncnc2ncc(CNc3ccccc3)nc12,O,0,0,7.93,['7.93'],['pKa_prospector']
4277,N#CC(C#N)=NNc1ccccc1,O,0,0,6.55,['6.55'],['pKa_prospector']
4278,NC(=[NH2+])NNc1ccccc1,O,0,0,8.26,['8.26'],['pKa_prospector']