,Solute SMILES,Solvent SMILES,Solute CAS,Solute IUPAC,pKa (avg),pKa (all),Source
3468,Nc1ccc(C(=O)[O-])cc1N,O,0,0,4.84,['4.84'],['pKa_prospector']
3469,Nc1ccc(C(=O)[O-])cc1N1C(=O)CSC1=S,O,0,0,4.52,['4.52'],['pKa_prospector']
3470,Nc1ccc(C(=O)[O-])cc1O,O,0,0,4.59,['4.59'],['pKa_prospector']
3471,O=C([O-])c1ccc(O)c(O)c1,O,0,0,4.48,['4.48'],['pKa_prospector']
3472,O=C([O-])C(O)c1ccc(O)c(O)c1,O,0,0,3.47,['3.47'],['pKa_prospector']
3473,O=[N+]([O-])c1cc(C(F)(F)F)ccc1NN=C(C(F)(F)F)C(F)(F)F,O,0,0,7.18,['7.18'],['pKa_prospector']
3474,O=[N+]([O-])c1cc(C(F)(F)F)ccc1[O-],O,0,0,5.66,['5.66'],['pKa_prospector']
3475,NC(=[NH2+])NN=Cc1ccc(Cl)c([N+](=O)[O-])c1,O,0,0,8.3,['8.30'],['pKa_prospector']
3476,O=Cc1ccc([O-])c([N+](=O)[O-])c1,O,0,0,4.61,['4.61'],['pKa_prospector']
3477,O=C([O-])Cc1ccc(O)c(O)c1,O,0,0,4.53,['4.53'],['pKa_prospector']
3478,OCc1ccc(O)c(CO)c1,O,0,0,9.77,['9.77'],['pKa_prospector']
3479,Nc1ccc(Cl)cc1Cl,O,0,0,2,['2.00'],['pKa_prospector']
3480,Clc1ccc([NH+]=C2NCCN2)c(Cl)c1,O,0,0,8.65,['8.65'],['pKa_prospector']
3481,S=C(N=Nc1ccc(Cl)cc1Cl)NNc1ccc(Cl)cc1Cl,O,0,0,5.8,['5.80'],['pKa_prospector']
3482,O=S(=O)([N-]c1ccc(Cl)cc1Cl)C(F)(F)F,O,0,0,2.96,['2.96'],['pKa_prospector']
3483,Oc1ccc(Cl)cc1Cl,O,0,0,7.86,['7.86'],['pKa_prospector']
3484,O=C([O-])COc1ccc(Cl)cc1Cl,O,0,0,2.84,['2.84'],['pKa_prospector']
3485,O=C([O-])CCCOc1ccc(Cl)cc1Cl,O,0,0,4.88,['4.88'],['pKa_prospector']
3486,Nc1ccc(Cl)cc1[N+](=O)[O-],O,0,0,-1.02,['-1.02'],['pKa_prospector']
3487,O=[N+]([O-])c1cc(Cl)ccc1[O-],O,0,0,6.44,['6.44'],['pKa_prospector']
3488,Nc1cc(Cl)ccc1Cl,O,0,0,1.57,['1.57'],['pKa_prospector']
3489,Nc1cc(Cl)ccc1[N+](=O)[O-],O,0,0,-1.52,['-1.52'],['pKa_prospector']
3490,Clc1ccc(Cl)c([NH+]=C2NCCN2)c1,O,0,0,8.25,['8.25'],['pKa_prospector']
3491,Clc1ccc(Cl)c(NC2=[NH+]CCN2)c1,O,0,0,8,['8.00'],['pKa_prospector']
3492,S=C(N=Nc1cc(Cl)ccc1Cl)NNc1cc(Cl)ccc1Cl,O,0,0,5.08,['5.08'],['pKa_prospector']
3493,Oc1cc(Cl)ccc1Cl,O,0,0,7.51,['7.51'],['pKa_prospector']
3494,O=P([O-])([O-])c1cc(Cl)ccc1Cl,O,0,0,6.63,['6.63'],['pKa_prospector']
3495,O=S(=O)([N-]c1ccc(F)cc1F)C(F)(F)F,O,0,0,3.44,['3.44'],['pKa_prospector']
3496,O=[N+]([O-])c1ccc(F)cc1[O-],O,0,0,6.3,['6.30'],['pKa_prospector']
3497,O=C([O-])c1cc([N+](=O)[O-])ccc1Cl,O,0,0,2.17,['2.17'],['pKa_prospector']
3498,O=C([O-])c1cc([N+](=O)[O-])ccc1[N+](=O)[O-],O,0,0,1.62,['1.62'],['pKa_prospector']
3499,O=[N+]([O-])c1ccc(NN=C(C(F)(F)F)C(F)(F)F)c(C(F)(F)F)c1,O,0,0,7.18,['7.18'],['pKa_prospector']
3500,O=C([O-])c1ccc([N+](=O)[O-])cc1Cl,O,0,0,1.96,['1.96'],['pKa_prospector']
3501,N#CC(C#N)=NNc1ccc([N+](=O)[O-])cc1Cl,O,0,0,4.15,['4.15'],['pKa_prospector']
3502,O=C([O-])c1ccc([N+](=O)[O-])cc1[N+](=O)[O-],O,0,0,1.42,['1.42'],['pKa_prospector']
3503,O=C([O-])Cc1ccc([N+](=O)[O-])cc1[N+](=O)[O-],O,0,0,3.5,['3.50'],['pKa_prospector']
3504,Nc1ccc([N+](=O)[O-])cc1[N+](=O)[O-],O,0,0,-4.53,['-4.53'],['pKa_prospector']
3505,O=[N+]([O-])c1ccc(NN=C(C(F)(F)F)C(F)(F)F)c([N+](=O)[O-])c1,O,0,0,7.45,['7.45'],['pKa_prospector']
3506,O=[N+]([O-])c1ccc([O-])c([N+](=O)[O-])c1,O,0,0,4.24,['4.24'],['pKa_prospector']
3507,O=[N+]([O-])c1ccc(ON=Cc2cc(Br)c([O-])c(Br)c2)c([N+](=O)[O-])c1,O,0,0,4,['4.00'],['pKa_prospector']
3508,O=[N+]([O-])c1ccc([N+](=O)[O-])c([O-])c1,O,0,0,5.2,['5.20'],['pKa_prospector']
3509,O=[N+]([O-])c1ccc(Br)c(P(=O)([O-])[O-])c1,O,0,0,6.14,['6.14'],['pKa_prospector']
3510,Nc1ccc(C(=O)[O-])c(Br)c1,O,0,0,3.69,['3.69'],['pKa_prospector']
3511,Nc1ccc(C(=O)[O-])c(Cl)c1,O,0,0,3.88,['3.88'],['pKa_prospector']
3512,Nc1ccc(F)c(Cl)c1,O,0,0,3.66,['3.66'],['pKa_prospector']
3513,Nc1ccc(P(=O)([O-])[O-])c(Cl)c1,O,0,0,7.33,['7.33'],['pKa_prospector']
3514,Nc1ccc(C(=O)[O-])c(F)c1,O,0,0,4.13,['4.13'],['pKa_prospector']
3515,Nc1ccc(C(=O)[O-])c(I)c1,O,0,0,3.81,['3.81'],['pKa_prospector']
3516,Nc1ccc(C(=O)[O-])c([N+](=O)[O-])c1,O,0,0,2.78,['2.78'],['pKa_prospector']
3517,Nc1ccc(Cl)c([N+](=O)[O-])c1,O,0,0,1.9,['1.90'],['pKa_prospector']
3518,Nc1ccc(C(=O)[O-])c(N)c1,O,0,0,5.81,['5.81'],['pKa_prospector']
3519,O=C(C[NH+]1CCCCC1)Nc1ccc(Cl)c(Cl)c1,O,0,0,7.93,['7.93'],['pKa_prospector']
3520,N#Cc1ccc(NC(=O)NC(N)=[NH2+])cc1Cl,O,0,0,6.95,['6.95'],['pKa_prospector']
3521,NC(=[NH2+])NC(=O)Nc1ccc(Cl)c(Cl)c1,O,0,0,7.21,['7.21'],['pKa_prospector']
3522,NC(=[NH2+])NC(=O)Nc1ccc([N+](=O)[O-])c(Cl)c1,O,0,0,7.17,['7.17'],['pKa_prospector']
3523,FC(F)(F)C(=NNc1ccc(Cl)c(Cl)c1)C(F)(F)F,O,0,0,6.5,['6.50'],['pKa_prospector']
3524,O=C([O-])Cc1cc(O)ccc1O,O,0,0,4.4,['4.40'],['pKa_prospector']
3525,Oc1ccc(Cl)c(Cl)c1,O,0,0,8.57,['8.57'],['pKa_prospector']
3526,O=[N+]([O-])c1ccc([O-])cc1[N+](=O)[O-],O,0,0,5.36,['5.36'],['pKa_prospector']
3527,NC(=O)c1ccc(O)cc1O,O,0,0,7.5,['7.50'],['pKa_prospector']
3528,O=C([O-])c1ccc(O)cc1O,O,0,0,3.22,['3.22'],['pKa_prospector']
3529,O=Cc1ccc(O)cc1O,O,0,0,7,['7.00'],['pKa_prospector']
3530,O=[N+]([O-])c1ccc([O-])cc1[O-],O,0,0,6.3,['6.30'],['pKa_prospector']
3531,O=C([O-])COc1ccc(Cl)c([N+](=O)[O-])c1,O,0,0,2.96,['2.96'],['pKa_prospector']
3532,O=C(NCC1CCCC[NH2+]1)c1cc(OCC(F)(F)F)ccc1OCC(F)(F)F,O,0,0,9.53,['9.53'],['pKa_prospector']
3533,[NH3+]C(Cc1cc(I)c(Oc2ccc(O)c(I)c2)c(I)c1)C(=O)[O-],O,0,0,8.4,['8.40'],['pKa_prospector']
3534,NS(=O)(=O)c1ccc(S(=O)(=O)CCCO)c(C(=O)[O-])c1,O,0,0,9.28,['9.28'],['pKa_prospector']
3535,NS(=O)(=O)c1ccc(SCCCO)c(C(=O)[O-])c1,O,0,0,9.94,['9.94'],['pKa_prospector']
3536,NS(=O)(=O)c1ccc(SCCO)c(C(=O)[O-])c1,O,0,0,10.45,['10.45'],['pKa_prospector']
3537,NS(=O)(=O)c1ccc(SCCCO)c(Cl)c1,O,0,0,9.45,['9.45'],['pKa_prospector']
3538,NS(=O)(=O)c1ccc(S(=O)(=O)CCCCO)c(F)c1,O,0,0,9.18,['9.18'],['pKa_prospector']
3539,NS(=O)(=O)c1ccc(S(=O)(=O)CCCO)c(F)c1,O,0,0,9.02,['9.02'],['pKa_prospector']
3540,NS(=O)(=O)c1ccc(S(=O)(=O)CCO)c(F)c1,O,0,0,9,['9.00'],['pKa_prospector']
3541,NS(=O)(=O)c1ccc(SCCCCO)c(F)c1,O,0,0,9.82,['9.82'],['pKa_prospector']
3542,NS(=O)(=O)c1ccc(SCCCO)c(F)c1,O,0,0,9.64,['9.64'],['pKa_prospector']
3543,NS(=O)(=O)c1ccc(SCCO)c(F)c1,O,0,0,9.76,['9.76'],['pKa_prospector']
3544,NS(=O)(=O)c1ccc(S(=O)(=O)CCCO)c([N+](=O)[O-])c1,O,0,0,8,['8.00'],['pKa_prospector']
3545,NS(=O)(=O)c1ccc(SCCCO)c([N+](=O)[O-])c1,O,0,0,9.38,['9.38'],['pKa_prospector']
3546,NS(=O)(=O)c1ccc(SCCO)c([N+](=O)[O-])c1,O,0,0,9.42,['9.42'],['pKa_prospector']
3547,Nc1cc(S(N)(=O)=O)ccc1S(=O)(=O)CCCO,O,0,0,9.15,['9.15'],['pKa_prospector']
3548,Nc1cc(S(N)(=O)=O)ccc1S(=O)(=O)CCO,O,0,0,9.5,['9.50'],['pKa_prospector']
3549,O=C([O-])c1cc(-c2ccc(F)cc2F)ccc1O,O,0,0,3,['3.00'],['pKa_prospector']
3550,NC(=O)c1ncccc1O,O,0,0,2.5,['2.50'],['pKa_prospector']
3551,Clc1cccnc1Cl,O,0,0,2.79,['2.79'],['pKa_prospector']
3552,O=[N+]([O-])c1cccnc1Cl,O,0,0,-2.6,['-2.60'],['pKa_prospector']
3553,Nc1ccc(S(=O)(=O)[N-]c2ncccc2Br)cc1,O,0,0,6.73,['6.73'],['pKa_prospector']
3554,N#Cc1cccnc1[N-]S(=O)(=O)c1ccc(N)cc1,O,0,0,5.25,['5.25'],['pKa_prospector']
3555,Nc1ccc(S(=O)(=O)[N-]c2ncccc2Cl)cc1,O,0,0,6.79,['6.79'],['pKa_prospector']
3556,Nc1cccc2nccnc12,O,0,0,2.59,['2.59'],['pKa_prospector']
3557,FC(F)(F)c1nc2c(Cl)ccc(Cl)c2[nH]1,O,0,0,6.85,['6.85'],['pKa_prospector']
3558,O=C1CCC2(O)C3Cc4ccc(O)c5c4C2(CC[NH+]3CC2CC2)C1O5,O,0,0,8.13,['8.13'],['pKa_prospector']
3559,O=C([O-])c1cccc2ncccc12,O,0,0,4.81,['4.81'],['pKa_prospector']
3560,FC(F)(F)c1cccc2ncccc12,O,0,0,3.1,['3.10'],['pKa_prospector']
3561,Nc1cccc2ncccc12,O,0,0,5.42,['5.42'],['pKa_prospector']
3562,Nc1cccc2nnccc12,O,0,0,2.69,['2.69'],['pKa_prospector']
3563,Nc1cccc2[nH]ncc12,O,0,0,3.26,['3.26'],['pKa_prospector']
3564,Nc1cccc2ncncc12,O,0,0,3.56,['3.56'],['pKa_prospector']
3565,O=C([O-])c1cccc(Br)c1,O,0,0,4.41,['4.41'],['pKa_prospector']
3566,O=C([O-])C(O)c1cccc(Br)c1,O,0,0,3.23,['3.23'],['pKa_prospector']
3567,Nc1cccc(Br)c1,O,0,0,3.58,['3.58'],['pKa_prospector']
3568,Oc1cccc(Br)c1,O,0,0,8.88,['8.88'],['pKa_prospector']
3569,O=C([O-])COc1cccc(Br)c1,O,0,0,3.1,['3.10'],['pKa_prospector']
3570,Brc1cccc(-c2nnn[n-]2)c1,O,0,0,4.04,['4.04'],['pKa_prospector']
3571,N#Cc1cccc(C(=O)[O-])c1,O,0,0,4.04,['4.04'],['pKa_prospector']
3572,O=C(OCn1ncc2c(=O)[nH]cnc21)c1cccc(C[NH+]2CCOCC2)c1,O,0,0,6.03,['6.03'],['pKa_prospector']
3573,O=C([O-])c1cccc(Cl)c1,O,0,0,4.29,['4.29'],['pKa_prospector']
3574,O=C(OO)c1cccc(Cl)c1,O,0,0,7.3,['7.30'],['pKa_prospector']
3575,O=C(c1cccc(Cl)c1)c1ccc2n1CCC2C(=O)[O-],O,0,0,3.44,['3.44'],['pKa_prospector']
3576,O=C([O-])C(O)c1cccc(Cl)c1,O,0,0,3.24,['3.24'],['pKa_prospector']
3577,O=C([O-])C=Cc1cccc(Cl)c1,O,0,0,4.86,['4.86'],['pKa_prospector']
3578,O=C([O-])Cc1cccc(Cl)c1,O,0,0,4.14,['4.14'],['pKa_prospector']
3579,O=C([O-])CCc1cccc(Cl)c1,O,0,0,4.59,['4.59'],['pKa_prospector']
3580,Clc1cccc(N2CC[NH2+]CC2)c1,O,0,0,8.85,['8.85'],['pKa_prospector']
3581,N#CC(C#N)=NNc1cccc(Cl)c1,O,0,0,6,['6.00'],['pKa_prospector']
3582,O=C([O-])COc1cccc(Cl)c1,O,0,0,3.07,['3.07'],['pKa_prospector']
3583,Clc1cccc(-c2nnn[n-]2)c1,O,0,0,4.06,['4.06'],['pKa_prospector']
3584,Nc1nnnn1-c1cccc(Cl)c1,O,0,0,0.7,['0.70'],['pKa_prospector']
3585,O=C([O-])c1cccc(F)c1,O,0,0,3.88,['3.88'],['pKa_prospector']
3586,O=C(c1cccc(F)c1)c1ccc2n1CCC2C(=O)[O-],O,0,0,3.46,['3.46'],['pKa_prospector']
3587,O=C([O-])C(O)c1cccc(F)c1,O,0,0,3.24,['3.24'],['pKa_prospector']
3588,O=C([O-])COc1cccc(F)c1,O,0,0,3.08,['3.08'],['pKa_prospector']
3589,O=C(NP(=O)(N1CC1)N1CC1)c1cccc(I)c1,O,0,0,7.78,['7.78'],['pKa_prospector']
3590,O=C([O-])c1cccc(I)c1,O,0,0,4.33,['4.33'],['pKa_prospector']
3591,O=C([O-])C(O)c1cccc(I)c1,O,0,0,3.26,['3.26'],['pKa_prospector']
3592,O=C([O-])Cc1cccc(I)c1,O,0,0,4.16,['4.16'],['pKa_prospector']
3593,Nc1cccc(I)c1,O,0,0,3.61,['3.61'],['pKa_prospector']
3594,Oc1cccc(I)c1,O,0,0,8.98,['8.98'],['pKa_prospector']
3595,O=C([O-])COc1cccc(I)c1,O,0,0,3.13,['3.13'],['pKa_prospector']
3596,N#C/N=[N+](\[O-])c1cccc(C(=O)[O-])c1,O,0,0,4.48,['4.48'],['pKa_prospector']
3597,NC(=O)/N=[N+](\[O-])c1cccc(C(=O)[O-])c1,O,0,0,4.74,['4.74'],['pKa_prospector']
3598,O=C([O-])c1cccc([N+](=O)[O-])c1,O,0,0,3.77,['3.77'],['pKa_prospector']
3599,O=C([O-])C=Cc1cccc([N+](=O)[O-])c1,O,0,0,4.35,['4.35'],['pKa_prospector']
3600,NC(=[NH2+])NN=Cc1cccc([N+](=O)[O-])c1,O,0,0,8.35,['8.35'],['pKa_prospector']
3601,O=C([O-])Cc1cccc([N+](=O)[O-])c1,O,0,0,4.55,['4.55'],['pKa_prospector']
3602,Nc1cccc([N+](=O)[O-])c1,O,0,0,2.47,['2.47'],['pKa_prospector']
3603,NC(=[NH2+])NC(=O)Nc1cccc([N+](=O)[O-])c1,O,0,0,7.23,['7.23'],['pKa_prospector']
3604,Nc1nnnn1-c1cccc([N+](=O)[O-])c1,O,0,0,0.47,['0.47'],['pKa_prospector']
3605,Nc1cccc(C(F)(F)F)c1,O,0,0,3.49,['3.49'],['pKa_prospector']
3606,FC(F)(F)c1cccc(N2CC[NH2+]CC2)c1,O,0,0,8.85,['8.85'],['pKa_prospector']
3607,O=C([O-])c1cccc(O)c1,O,0,0,4.57,['4.57'],['pKa_prospector']
3608,Oc1cccc(C(F)(F)F)c1,O,0,0,8.27,['8.27'],['pKa_prospector']
3609,O=C([O-])C=Cc1cccc(O)c1,O,0,0,4.4,['4.40'],['pKa_prospector']
3610,O=[N+]([O-])c1cccc(O)c1,O,0,0,8.32,['8.32'],['pKa_prospector']
3611,N#Cc1cccc(OCC(=O)[O-])c1,O,0,0,3.03,['3.03'],['pKa_prospector']
3612,O=C([O-])COc1cccc([N+](=O)[O-])c1,O,0,0,2.95,['2.95'],['pKa_prospector']
3613,Nc1cccc(P(=O)([O-])[O-])c1,O,0,0,7.16,['7.16'],['pKa_prospector']
3614,Nc1cccc(S(N)(=O)=O)c1,O,0,0,2.84,['2.84'],['pKa_prospector']
3615,Nc1cccc(S(=O)(=O)[O-])c1,O,0,0,3.74,['3.74'],['pKa_prospector']
3616,O=S(=O)([O-])c1cccc(O)c1,O,0,0,9.07,['9.07'],['pKa_prospector']
3617,O=[N+]([O-])c1cccc(S(=O)[O-])c1,O,0,0,1.88,['1.88'],['pKa_prospector']
3618,Oc1ccc2cc(Br)ccc2c1,O,0,0,9.38,['9.38'],['pKa_prospector']
3619,Nc1ccc2cc([N+](=O)[O-])ccc2c1,O,0,0,2.62,['2.62'],['pKa_prospector']
3620,O=S(=O)([O-])c1ccc2cc(O)ccc2c1,O,0,0,9.1,['9.10'],['pKa_prospector']
3621,Nc1ccc2cc3cc(Cl)ccc3nc2c1,O,0,0,6.91,['6.91'],['pKa_prospector']
3622,Nc1ccc2nc3cc(N)ccc3cc2c1,O,0,0,8.11,['8.11'],['pKa_prospector']
3623,Nc1ccc2cc3cc(S(=O)(=O)[O-])ccc3nc2c1,O,0,0,7.6,['7.60'],['pKa_prospector']
3624,Nc1ccc2cc3ccc(Cl)cc3nc2c1,O,0,0,7.22,['7.22'],['pKa_prospector']
3625,Nc1ccc2cc3ccc(N)cc3nc2c1,O,0,0,9.65,['9.65'],['pKa_prospector']
3626,Nc1ccc2ccc(Cl)cc2c1,O,0,0,3.71,['3.71'],['pKa_prospector']
3627,Nc1ccc2ccc([N+](=O)[O-])cc2c1,O,0,0,3.1,['3.10'],['pKa_prospector']
3628,Nc1ccc2ccc(N)cc2c1,O,0,0,4.66,['4.66'],['pKa_prospector']
3629,Nc1ccc2ccc(O)cc2c1,O,0,0,4.25,['4.25'],['pKa_prospector']
3630,Nc1ccc2ccc(S(=O)(=O)[O-])cc2c1,O,0,0,3.95,['3.95'],['pKa_prospector']
3631,O=S(=O)([O-])c1ccc2ccc(O)cc2c1,O,0,0,9.2,['9.20'],['pKa_prospector']
3632,Nc1ccc2ccncc2c1,O,0,0,6.19,['6.19'],['pKa_prospector']
3633,O=[N+]([O-])c1ccc2ccncc2c1,O,0,0,3.57,['3.57'],['pKa_prospector']
3634,Nc1ccc2ccnnc2c1,O,0,0,4.83,['4.83'],['pKa_prospector']
3635,N#Cc1ccc(C(=O)[O-])cc1,O,0,0,3.94,['3.94'],['pKa_prospector']
3636,N#Cc1ccc(OCC(=O)[O-])cc1,O,0,0,2.93,['2.93'],['pKa_prospector']
3637,[NH3+]C(=CC(=S)C(F)(F)C(F)F)c1ccc(Br)cc1,O,0,0,11.2,['11.20'],['pKa_prospector']
3638,NC(=[NH+]O)c1ccc(Br)cc1,O,0,0,13.32,['13.32'],['pKa_prospector']
3639,NC(=[NH+]O)c1ccc(Cl)cc1,O,0,0,13.34,['13.34'],['pKa_prospector']
3640,NC(=[NH+]O)c1ccc([N+](=O)[O-])cc1,O,0,0,12.69,['12.69'],['pKa_prospector']
3641,NC(=O)C1([NH+]2CCCCC2)CC[NH+](CCCC(=O)c2ccc(F)cc2)CC1,O,0,0,8.28,['8.28'],['pKa_prospector']
3642,O=C(CCC[NH+]1CCC(O)(c2ccc(Cl)cc2)CC1)c1ccc(F)cc1,O,0,0,8.25,['8.25'],['pKa_prospector']
3643,Nc1ccc(C(=O)NCC(=O)[O-])cc1,O,0,0,3.64,['3.64'],['pKa_prospector']
3644,O=C(NCC[NH+]1CCC(n2c(=O)[nH]c3cc(Cl)ccc32)CC1)c1ccc(F)cc1,O,0,0,7.82,['7.82'],['pKa_prospector']
3645,O=C(NO)c1ccc(Cl)cc1,O,0,0,9.59,['9.59'],['pKa_prospector']
3646,O=C(NO)c1ccc([N+](=O)[O-])cc1,O,0,0,8.07,['8.07'],['pKa_prospector']
3647,O=C(NP(=O)(N1CC1)N1CC1)c1ccc(Br)cc1,O,0,0,7.91,['7.91'],['pKa_prospector']
3648,O=C(NP(=O)(N1CC1)N1CC1)c1ccc(Cl)cc1,O,0,0,7.73,['7.73'],['pKa_prospector']
3649,O=C(NP(=O)(N1CC1)N1CC1)c1ccc(F)cc1,O,0,0,8.05,['8.05'],['pKa_prospector']
3650,O=C(NP(=O)(N1CC1)N1CC1)c1ccc(I)cc1,O,0,0,7.9,['7.90'],['pKa_prospector']
3651,O=C(Nc1n[nH]c(NC(=O)c2ccc([N+](=O)[O-])cc2)n1)c1ccc([N+](=O)[O-])cc1,O,0,0,8.64,['8.64'],['pKa_prospector']
3652,O=C([O-])c1ccc(Br)cc1,O,0,0,4.57,['4.57'],['pKa_prospector']
3653,O=C([O-])c1ccc(Cl)cc1,O,0,0,4.41,['4.41'],['pKa_prospector']
3654,O=C([O-])c1ccc(F)cc1,O,0,0,4.17,['4.17'],['pKa_prospector']
3655,O=C([O-])c1ccc(I)cc1,O,0,0,3.96,['3.96'],['pKa_prospector']
3656,N#C/N=[N+](\[O-])c1ccc(C(=O)[O-])cc1,O,0,0,4.32,['4.32'],['pKa_prospector']
3657,NC(=O)/N=[N+](\[O-])c1ccc(C(=O)[O-])cc1,O,0,0,4.69,['4.69'],['pKa_prospector']
3658,O=C([O-])c1ccc([N+](=O)[O-])cc1,O,0,0,3.67,['3.67'],['pKa_prospector']
3659,NS(=O)(=O)c1ccc(C(=O)[O-])cc1,O,0,0,3.52,['3.52'],['pKa_prospector']
3660,O=C(c1ccc(Cl)cc1)c1cc(F)ccc1O,O,0,0,8.94,['8.94'],['pKa_prospector']
3661,O=C(c1ccc(Cl)cc1)c1ccc2n1CCC2C(=O)[O-],O,0,0,3.4,['3.40'],['pKa_prospector']
3662,O=C(c1ccc(F)cc1)c1ccc2n1CCC2C(=O)[O-],O,0,0,3.51,['3.51'],['pKa_prospector']
3663,NC(=CC(=S)c1ccc(Br)cc1)C(F)(F)F,O,0,0,9.3,['9.30'],['pKa_prospector']
3664,NC(=CC(=S)c1ccc(Cl)cc1)C(F)(F)F,O,0,0,9.29,['9.29'],['pKa_prospector']
3665,Nc1ccc(C(F)(F)F)cc1,O,0,0,2.57,['2.57'],['pKa_prospector']
3666,[O-]c1ccc(C(F)(F)F)cc1,O,0,0,8.08,['8.08'],['pKa_prospector']
3667,O=C([O-])C(c1ccc(Cl)cc1)c1ccc(Cl)cc1,O,0,0,3.66,['3.66'],['pKa_prospector']
3668,Oc1ccc(C(c2ccncc2)c2ccc(O)cc2)cc1,O,0,0,9.47,['9.47'],['pKa_prospector']
3669,Oc1ccc(C(c2ccc(O)cc2)c2nccs2)cc1,O,0,0,9.6,['9.60'],['pKa_prospector']
3670,Nc1ccc(C2([NH+]3CCCCC3)CCCCC2)cc1,O,0,0,9.25,['9.25'],['pKa_prospector']
3671,O=[N+]([O-])c1ccc(C2([NH+]3CCCCC3)CCCCC2)cc1,O,0,0,7.47,['7.47'],['pKa_prospector']
3672,Oc1ccc(C2([NH+]3CCCCC3)CCCCC2)cc1,O,0,0,8.85,['8.85'],['pKa_prospector']
3673,O=C1CN=C(c2ccc(F)cc2)c2cc(Cl)ccc2N1,O,0,0,3.21,['3.21'],['pKa_prospector']
3674,OCC[NH+]1CCN(C2CC(c3ccc(F)cc3)c3ccc(C(F)(F)F)cc32)CC1,O,0,0,7.39,['7.39'],['pKa_prospector']
3675,OCC[NH+]1CCN(C2CC(c3ccc(F)cc3)c3ccc(Cl)cc32)CC1,O,0,0,7.46,['7.46'],['pKa_prospector']
3676,OCC[NH+]1CCN(C2CC(c3ccc(F)cc3)c3ccc(F)cc32)CC1,O,0,0,7.43,['7.43'],['pKa_prospector']
3677,O=C([O-])c1ccc(C2CCCCC2)cc1,O,0,0,5.96,['5.96'],['pKa_prospector']
3678,O=C([O-])C=Cc1ccc(Cl)cc1,O,0,0,4.41,['4.41'],['pKa_prospector']
3679,O=C([O-])C=Cc1ccc([N+](=O)[O-])cc1,O,0,0,4.27,['4.27'],['pKa_prospector']
3680,NC(=[NH2+])NN=Cc1ccc(Br)cc1,O,0,0,8.5,['8.50'],['pKa_prospector']
3681,NC(=[NH2+])NN=Cc1ccc(Cl)cc1,O,0,0,8.5,['8.50'],['pKa_prospector']
3682,NC(=[NH2+])NN=Cc1ccc([N+](=O)[O-])cc1,O,0,0,8.2,['8.20'],['pKa_prospector']
3683,NC(=O)NN=Cc1ccc(Cl)cc1,O,0,0,-1.15,['-1.15'],['pKa_prospector']
3684,O=C([O-])Cc1ccc(Br)cc1,O,0,0,4.19,['4.19'],['pKa_prospector']
3685,O=C([O-])Cc1ccc(Cl)cc1,O,0,0,4.19,['4.19'],['pKa_prospector']
3686,O=C([O-])Cc1ccc(F)cc1,O,0,0,4.25,['4.25'],['pKa_prospector']
3687,O=C([O-])Cc1ccc(I)cc1,O,0,0,4.18,['4.18'],['pKa_prospector']
3688,O=C([O-])Cc1ccc([N+](=O)[O-])cc1,O,0,0,4.45,['4.45'],['pKa_prospector']
3689,O=C([O-])CCc1ccc(Cl)cc1,O,0,0,5.2,['5.20'],['pKa_prospector']
3690,O=C([O-])CCc1ccc([N+](=O)[O-])cc1,O,0,0,4.47,['4.47'],['pKa_prospector']
3691,O=C([O-])CCCc1ccc(N(CCCl)CCCl)cc1,O,0,0,5.78,['5.78'],['pKa_prospector']
3692,NS(=O)(=O)c1ccc(CCCCCO)cc1,O,0,0,10.28,['10.28'],['pKa_prospector']
3693,NS(=O)(=O)c1ccc(CCCCO)cc1,O,0,0,10.32,['10.32'],['pKa_prospector']
3694,NS(=O)(=O)c1ccc(CCCO)cc1,O,0,0,10.23,['10.23'],['pKa_prospector']
3695,N#CC(C#N)=NNc1ccc(CCCl)cc1,O,0,0,6.5,['6.50'],['pKa_prospector']
3696,O=C(OCn1ncc2c(=O)[nH]cnc21)c1ccc(C[NH+]2CCOCC2)cc1,O,0,0,6.05,['6.05'],['pKa_prospector']
3697,NS(=O)(=O)c1cc(C(=O)c2ccc(C[NH+]3CCOCC3)cc2)cs1,O,0,0,9.28,['9.28'],['pKa_prospector']
3698,Clc1ccc(CNc2ncnc3[nH]ncc23)cc1,O,0,0,3.92,['3.92'],['pKa_prospector']
3699,Oc1ccc(Cc2ccc(O)cc2)cc1,O,0,0,9.63,['9.63'],['pKa_prospector']
3700,O=[N+]([O-])c1ccc(Cc2ccncc2)cc1,O,0,0,5.8,['5.80'],['pKa_prospector']
3701,O=[N+]([O-])c1ccc([O-])cc1,O,0,0,7.1,['7.10'],['pKa_prospector']
3702,NC(=O)Oc1ccc([N+](=O)[O-])cc1,O,0,0,-2.58,['-2.58'],['pKa_prospector']
3703,O=C([O-])COc1ccc([N+](=O)[O-])cc1,O,0,0,2.89,['2.89'],['pKa_prospector']
3704,O=[N+]([O-])c1ccc(OCC[NH+]2CCOCC2)cc1,O,0,0,6.3,['6.30'],['pKa_prospector']
3705,O=[N+]([O-])c1ccc(OCCn2ccnc2)cc1,O,0,0,6.65,['6.65'],['pKa_prospector']
3706,O=[N+]([O-])c1ccc([S-])cc1,O,0,0,4.5,['4.50'],['pKa_prospector']
3707,O=C([N-]S(=O)(=O)c1ccc([N+](=O)[O-])cc1)NC1CCCCC1,O,0,0,4,['4.00'],['pKa_prospector']
3708,O=[N+]([O-])c1ccc(S(=O)[O-])cc1,O,0,0,1.86,['1.86'],['pKa_prospector']
3709,Nc1ccc(Br)cc1,O,0,0,3.86,['3.86'],['pKa_prospector']
3710,Nc1ccc(I)cc1,O,0,0,3.78,['3.78'],['pKa_prospector']
3711,Nc1ccc([N+](=O)[O-])cc1,O,0,0,1,['1.00'],['pKa_prospector']
3712,Nc1ccc(Nc2ccc(S(N)(=O)=O)cc2)cc1,O,0,0,10.22,['10.22'],['pKa_prospector']
3713,Nc1ccc(P(=O)([O-])[O-])cc1,O,0,0,7.53,['7.53'],['pKa_prospector']
3714,Nc1ccc(S(=O)(=O)NCC(=O)[O-])cc1,O,0,0,3.52,['3.52'],['pKa_prospector']
3715,Nc1ccc(S(=O)(=O)[N-]c2ncc(Br)cc2Br)cc1,O,0,0,5.78,['5.78'],['pKa_prospector']
3716,Nc1ccc(S(=O)(=O)[N-]c2ncc(Cl)cc2Cl)cc1,O,0,0,5.98,['5.98'],['pKa_prospector']
3717,Nc1ccc(S(=O)(=O)[N-]c2ccc(Cl)cc2)cc1,O,0,0,8.6,['8.60'],['pKa_prospector']
3718,Nc1ccc(S(=O)(=O)[N-]c2ccc([N+](=O)[O-])cc2)cc1,O,0,0,7,['7.00'],['pKa_prospector']
3719,Nc1ccc(S(=O)(=O)[N-]c2ccc(Br)cn2)cc1,O,0,0,6.98,['6.98'],['pKa_prospector']
3720,Nc1ccc(S(=O)(=O)[N-]c2ccc(Cl)cn2)cc1,O,0,0,6.96,['6.96'],['pKa_prospector']
3721,Nc1ccc(S(=O)(=O)[N-]c2ccc(Cl)nc2)cc1,O,0,0,7.1,['7.10'],['pKa_prospector']
3722,Nc1ccc(S(=O)(=O)[N-]c2ccc(Cl)nn2)cc1,O,0,0,6.1,['6.10'],['pKa_prospector']
3723,Nc1ccc(S(=O)(=O)[O-])cc1,O,0,0,3.23,['3.23'],['pKa_prospector']
3724,Clc1ccc(N2CC[NH2+]CC2)cc1,O,0,0,8.9,['8.90'],['pKa_prospector']
3725,Fc1ccc(N2CC[NH2+]CC2)cc1,O,0,0,8.98,['8.98'],['pKa_prospector']
3726,Brc1ccc([NH+]=C2NCCN2)cc1,O,0,0,9.65,['9.65'],['pKa_prospector']
3727,NC(=[NH2+])Nc1ccc(Cl)cc1,O,0,0,10.6,['10.60'],['pKa_prospector']
3728,NC(=[NH2+])Nc1ccc([N+](=O)[O-])cc1,O,0,0,9.13,['9.13'],['pKa_prospector']
3729,O=C([O-])CCC(=O)Nc1ccc(S(=O)(=O)[N-]c2nccs2)cc1,O,0,0,4.5,['4.50'],['pKa_prospector']
3730,O=C(C[NH+]1CCCCC1)Nc1ccc(Cl)cc1,O,0,0,8,['8.00'],['pKa_prospector']
3731,O=C(C[NH+]1CCCCC1)Nc1ccc([N+](=O)[O-])cc1,O,0,0,7.69,['7.69'],['pKa_prospector']
3732,NC(=[NH2+])NC(=O)Nc1ccc(Cl)cc1,O,0,0,7.36,['7.36'],['pKa_prospector']
3733,N#CC(C#N)=NNc1ccc(Cl)cc1,O,0,0,6.15,['6.15'],['pKa_prospector']
3734,N#CC(C#N)=NNc1ccc(OC(F)(F)F)cc1,O,0,0,6,['6.00'],['pKa_prospector']