,Solute SMILES,Solvent SMILES,Solute CAS,Solute IUPAC,pKa (avg),pKa (all),Source
2111,CN1CC[NH+](C(c2ccccc2)c2cccc(Cl)c2)CC1,O,0,0,8.1,['8.10'],['pKa_prospector']
2112,CN1CC[NH+](C(c2ccccc2)c2ccccc2)CC1,O,0,0,8.24,['8.24'],['pKa_prospector']
2113,C[NH+]1CCN(C2=[NH+]c3cc(Cl)ccc3Nc3ccccc32)CC1,O,0,0,7.75,['7.75'],['pKa_prospector']
2114,C[NH+]1CCN(C2=[NH+]c3ccccc3Oc3ccc(Cl)cc32)CC1,O,0,0,6.6,['6.60'],['pKa_prospector']
2115,CN1CC[NH+](CCC(C(N)=O)(c2ccccc2)c2ccccn2)CC1,O,0,0,7.81,['7.81'],['pKa_prospector']
2116,CN1CC[NH+](CCC=C2c3ccccc3Sc3ccc(S(=O)(=O)N(C)C)cc32)CC1,O,0,0,7.82,['7.82'],['pKa_prospector']
2117,CN1CC[NH+](CCCN2c3ccccc3Sc3ccccc32)CC1,O,0,0,8.01,['8.01'],['pKa_prospector']
2118,CN1CC[NH+](Cc2ccc(C(=O)OCn3ncc4c(=O)[nH]cnc43)cc2)CC1,O,0,0,7.7,['7.70'],['pKa_prospector']
2119,CN1CC[NH+](Cc2cccc(C(=O)OCn3ncc4c(=O)[nH]cnc43)c2)CC1,O,0,0,7.65,['7.65'],['pKa_prospector']
2120,C[NH+]1CCN(N=O)CC1,O,0,0,5.93,['5.93'],['pKa_prospector']
2121,CN1CCN2C1=[NH+]C(=[NH2+])C2(c1ccccc1)c1ccccc1,O,0,0,8.59,['8.59'],['pKa_prospector']
2122,CN1CCNC1=[NH+]C(c1ccccc1)c1ccccc1,O,0,0,10.64,['10.64'],['pKa_prospector']
2123,C[NH+]1CCOC(O)(c2ccc(Br)cc2)C1,O,0,0,7.07,['7.07'],['pKa_prospector']
2124,C[NH+]1CCOC(O)(c2cccc(C(F)(F)F)c2)C1,O,0,0,7.54,['7.54'],['pKa_prospector']
2125,C[NH+]1CCOC(O)(c2ccccc2)C1,O,0,0,7.26,['7.26'],['pKa_prospector']
2126,C#CCOC1(c2ccccc2)C[NH+](C)CCO1,O,0,0,6.86,['6.86'],['pKa_prospector']
2127,C=CCOC1(c2ccccc2)C[NH+](C)CCO1,O,0,0,7.09,['7.09'],['pKa_prospector']
2128,C[NH+]1CCOC(OCCc2ccccc2)(c2ccccc2)C1,O,0,0,7.07,['7.07'],['pKa_prospector']
2129,C[NH+]1CCOC(OCc2ccccc2)(c2ccccc2)C1,O,0,0,6.97,['6.97'],['pKa_prospector']
2130,C[NH+]1CCOC(O)C1c1ccccc1,O,0,0,6.02,['6.02'],['pKa_prospector']
2131,CN1CCSC(=NO)C1=O,O,0,0,9.07,['9.07'],['pKa_prospector']
2132,COc1noc2c1C[NH+](C)CC2,O,0,0,6.6,['6.60'],['pKa_prospector']
2133,C[NH+]1CCc2c(c3ccccc3n2Cc2ccccc2)C1,O,0,0,7.63,['7.63'],['pKa_prospector']
2134,C[NH+]1CCc2cc(Cl)c(O)cc2C(c2ccccc2)C1,O,0,0,7.67,['7.67'],['pKa_prospector']
2135,COc1cc(C(=O)Nc2ccc3c(c2)CC[NH+](C)C3)cc(OC)c1OC,O,0,0,7.6,['7.60'],['pKa_prospector']
2136,COc1ccc2c(c1OC)C(=O)OC2C1c2c(cc3c(c2OC)OCO3)CC[NH+]1C,O,0,0,6.14,['6.14'],['pKa_prospector']
2137,C[NH+]1CCc2cc3c(cc2C(=O)Cc2ccc4c(c2C1)OCO4)OCO3,O,0,0,5.99,['5.99'],['pKa_prospector']
2138,COc1ccc2c(c1OC)C(=O)OC2C1c2cc3c(cc2CC[NH+]1C)OCO3,O,0,0,6.63,['6.63'],['pKa_prospector']
2139,C[NH+]1CCc2cc3c(cc2C1O)OCO3,O,0,0,11.58,['11.58'],['pKa_prospector']
2140,COc1ccc2c(c1)-c1c(ccc(OC)c1O)CC(CCc1ccccc1)[NH+](C)CC2,O,0,0,9.34,['9.34'],['pKa_prospector']
2141,C[NH+]1CCc2cccc(Cl)c2CC1,O,0,0,8.14,['8.14'],['pKa_prospector']
2142,C[NH+]1Cc2c(ccc3c2OCO3)C2C(O)Cc3cc4c(cc3C21)OCO4,O,0,0,10.42,['10.42'],['pKa_prospector']
2143,CN1C=[NH+]c2ccccc2C1,O,0,0,9.22,['9.22'],['pKa_prospector']
2144,CN1Cc2ccccc2[NH+]=C1O,O,0,0,7.26,['7.26'],['pKa_prospector']
2145,Cn1[nH+]c(N)c2cn(C3OC(CO)C(O)C3O)c3ncnc1c23,O,0,0,3.55,['3.55'],['pKa_prospector']
2146,CN1C(=O)CN=C(c2c(Cl)cccc2Cl)c2cc(Cl)ccc21,O,0,0,0.8,['0.80'],['pKa_prospector']
2147,CN1C(=O)CN=C(c2ccc(Cl)cc2)c2cc(F)ccc21,O,0,0,2.98,['2.98'],['pKa_prospector']
2148,COc1ccc(C2=NCC(=O)N(C)c3ccc(Cl)cc32)cc1,O,0,0,4,['4.00'],['pKa_prospector']
2149,CN1C(=O)CN=C(c2ccccc2)c2cc(Cl)ccc21,O,0,0,3.29,['3.29'],['pKa_prospector']
2150,CN1C(=O)CN=C(c2ccccc2)c2cc(N)ccc21,O,0,0,4.24,['4.24'],['pKa_prospector']
2151,CN1C(=O)CN=C(c2ccccc2)c2cc([N+](=O)[O-])ccc21,O,0,0,2.63,['2.63'],['pKa_prospector']
2152,CSc1ccc2c(c1)C(c1ccccc1)=NCC(=O)N2C,O,0,0,3.7,['3.70'],['pKa_prospector']
2153,CN1C(=O)CN=C(c2ccccc2Cl)c2cc(Cl)ccc21,O,0,0,1.92,['1.92'],['pKa_prospector']
2154,CN1C(=O)CN=C(c2ccccc2F)c2cc(Cl)ccc21,O,0,0,2.22,['2.22'],['pKa_prospector']
2155,CN1C(=O)CN=C(c2ccccc2F)c2cc(I)ccc21,O,0,0,2.45,['2.45'],['pKa_prospector']
2156,CN1C(=O)CN=C(c2ccccc2F)c2cc(N)ccc21,O,0,0,3.55,['3.55'],['pKa_prospector']
2157,CN1C(=O)CN=C(c2ccccc2F)c2cc([N+](=O)[O-])ccc21,O,0,0,1.87,['1.87'],['pKa_prospector']
2158,CN1C2=[NH+]CCN2C(c2ccccc2)c2ccccc21,O,0,0,8.14,['8.14'],['pKa_prospector']
2159,CN1c2ccccc2C(O)(c2ccccc2)c2ccccc21,O,0,0,9.58,['9.58'],['pKa_prospector']
2160,CN1C(S)=[NH+]Cc2ccccc21,O,0,0,-2.36,['-2.36'],['pKa_prospector']
2161,CN=c1ncn(C)c2nccnc12,O,0,0,10.3,['10.30'],['pKa_prospector']
2162,CN=c1cc2n(-c3ccc(Cl)cc3)c3ccccc3nc-2cc1Nc1ccc(Cl)cc1,O,0,0,9.72,['9.72'],['pKa_prospector']
2163,CN=c1ncc(Br)cn1C,O,0,0,10.65,['10.65'],['pKa_prospector']
2164,CNC(=C[N+](=O)[O-])[NH2+]CCSCc1ccc(C[NH+](C)C)o1,O,0,0,8.31,['8.31'],['pKa_prospector']
2165,CNC(=[NH2+])NC(=[NH2+])Nc1ccc(Cl)cc1,O,0,0,10.95,['10.95'],['pKa_prospector']
2166,CNC(=[NH2+])Nc1ccc(Cl)cc1,O,0,0,10.85,['10.85'],['pKa_prospector']
2167,CNC(=[NH2+])c1nc[nH]c1N,O,0,0,9.5,['9.50'],['pKa_prospector']
2168,CNC(=NC#N)NCCCCc1ncccc1OC,O,0,0,5.44,['5.44'],['pKa_prospector']
2169,CNC(=NC#N)NCCSCc1ncccc1OC,O,0,0,4.08,['4.08'],['pKa_prospector']
2170,CNC(=NC#N)NCCSCc1csc([NH+]=C(N)N)n1,O,0,0,6.8,['6.80'],['pKa_prospector']
2171,CNC(=NC#N)NCCSCc1nccs1,O,0,0,1.8,['1.80'],['pKa_prospector']
2172,CNC(NCc1ccccc1)=[NH+]C,O,0,0,10.6,['10.60'],['pKa_prospector']
2173,CNC(=O)[N-]S(=O)(=O)c1ccc(Cl)cc1,O,0,0,4.64,['4.64'],['pKa_prospector']
2174,CNC(=O)[N-]S(=O)(=O)c1ccc([N+](=O)[O-])cc1,O,0,0,3.94,['3.94'],['pKa_prospector']
2175,CNC(=O)[N-]S(=O)(=O)c1ccccc1,O,0,0,5,['5.00'],['pKa_prospector']
2176,CNC(=O)Nc1c(OCC[NH+]2CCCC2)c(OC)c2occc2c1OC,O,0,0,9.49,['9.49'],['pKa_prospector']
2177,CNC(=O)n1cc(F)c(=O)[nH]c1=O,O,0,0,6.7,['6.70'],['pKa_prospector']
2178,CNC(=S)NCCCCc1c[nH]cn1,O,0,0,7.38,['7.38'],['pKa_prospector']
2179,CNC(=S)NCCSCc1cnc[nH]1,O,0,0,6.25,['6.25'],['pKa_prospector']
2180,C[NH2+]C(Cc1ccccc1)Cc1ccccc1,O,0,0,9.43,['9.43'],['pKa_prospector']
2181,C[NH2+]C1CCCCC1Cl,O,0,0,9.85,['9.85'],['pKa_prospector']
2182,C[NH2+]CC(O)c1ccccc1,O,0,0,9.31,['9.31'],['pKa_prospector']
2183,C[NH2+]CCC(c1ccccc1)c1ccccn1,O,0,0,10.1,['10.10'],['pKa_prospector']
2184,C[NH2+]CCC=C1c2ccccc2CCc2ccccc21,O,0,0,9.92,['9.92'],['pKa_prospector']
2185,C[NH2+]CCC=Cc1cccnc1,O,0,0,9.95,['9.95'],['pKa_prospector']
2186,C[NH2+]CCCC1CCCCC1,O,0,0,10.52,['10.52'],['pKa_prospector']
2187,C[NH2+]CCCCc1ccccc1,O,0,0,10.8,['10.80'],['pKa_prospector']
2188,C[NH2+]CCCN1c2ccccc2CCc2ccccc21,O,0,0,10.32,['10.32'],['pKa_prospector']
2189,C[NH2+]CCCc1ccccc1,O,0,0,10.64,['10.64'],['pKa_prospector']
2190,C[NH2+]CCN(C)S(=O)(=O)c1ccc(CONC(N)=O)c([N+](=O)[O-])c1,O,0,0,8.39,['8.39'],['pKa_prospector']
2191,C[NH2+]CCOC(c1ccccc1)c1ccccc1,O,0,0,9.12,['9.12'],['pKa_prospector']
2192,C[NH2+]CCc1c[nH]c2ccccc12,O,0,0,10.51,['10.51'],['pKa_prospector']
2193,C[NH2+]CCc1ccc(OC)c(OC)c1,O,0,0,9.87,['9.87'],['pKa_prospector']
2194,C[NH2+]CCc1ccc(OC)cc1,O,0,0,10.04,['10.04'],['pKa_prospector']
2195,C[NH2+]CCc1cccc(OC)c1,O,0,0,9.99,['9.99'],['pKa_prospector']
2196,C[NH2+]CCc1ccccc1,O,0,0,10,['10.00'],['pKa_prospector']
2197,C[NH2+]CCc1csc2ccccc12,O,0,0,10.04,['10.04'],['pKa_prospector']
2198,C[NH2+]Cc1cc2sc(S(N)(=O)=O)cc2s1,O,0,0,7.65,['7.65'],['pKa_prospector']
2199,C[NH2+]Cc1cc2cc(S(N)(=O)=O)sc2s1,O,0,0,8.02,['8.02'],['pKa_prospector']
2200,CNNCCOc1ccccc1,O,0,0,6.9,['6.90'],['pKa_prospector']
2201,C=CC[NH+]1CCCC1CNC(=O)c1cc(S(=O)(=O)NC)c(N)cc1OC,O,0,0,8.62,['8.62'],['pKa_prospector']
2202,CNS(=O)(=O)c1ccc(C(=O)[O-])cc1,O,0,0,3.3,['3.30'],['pKa_prospector']
2203,CNS(=O)(=O)c1ccc(Cl)cc1,O,0,0,10.96,['10.96'],['pKa_prospector']
2204,CNc1ncnc(N)c1N,O,0,0,5.9,['5.90'],['pKa_prospector']
2205,CNc1ncnc(N)c1[N+](=O)[O-],O,0,0,2.73,['2.73'],['pKa_prospector']
2206,CNc1nc(=O)[nH]cc1F,O,0,0,2.66,['2.66'],['pKa_prospector']
2207,CNc1nc(=O)n(C2CC(O)C(CO)O2)cc1F,O,0,0,2.14,['2.14'],['pKa_prospector']
2208,CNc1nc(O)ncc1F,O,0,0,2.66,['2.66'],['pKa_prospector']
2209,CNc1nccnc1C(N)=[NH2+],O,0,0,8.96,['8.96'],['pKa_prospector']
2210,CNc1ncnc2nccnc12,O,0,0,3.68,['3.68'],['pKa_prospector']
2211,CNc1ncnc2scnc12,O,0,0,2.81,['2.81'],['pKa_prospector']
2212,CNc1nc(NC)c2cn[nH]c2n1,O,0,0,6.04,['6.04'],['pKa_prospector']
2213,CNc1ncnc2c1cnn2C,O,0,0,4.2,['4.20'],['pKa_prospector']
2214,CNc1nccn2cc(-c3ccc(S(C)=O)cc3OC)[nH+]c12,O,0,0,5.36,['5.36'],['pKa_prospector']
2215,CNc1cc(Cl)ncn1,O,0,0,2.24,['2.24'],['pKa_prospector']
2216,CNc1cc(N(C)C)ncn1,O,0,0,6.37,['6.37'],['pKa_prospector']
2217,CNc1cc(NC)ncn1,O,0,0,6.32,['6.32'],['pKa_prospector']
2218,CNc1cc(OC)ncn1,O,0,0,4.21,['4.21'],['pKa_prospector']
2219,CNc1ccc(C(=O)OC)cc1,O,0,0,2.32,['2.32'],['pKa_prospector']
2220,CNc1ccc(Cl)cc1,O,0,0,3.9,['3.90'],['pKa_prospector']
2221,CNc1ccc(P(=O)([O-])[O-])cc1,O,0,0,7.85,['7.85'],['pKa_prospector']
2222,CNc1ccc(Cl)cc1[N+](=O)[O-],O,0,0,-1.49,['-1.49'],['pKa_prospector']
2223,CNc1cccc2ccccc12,O,0,0,3.67,['3.67'],['pKa_prospector']
2224,CNc1ccccc1C(=O)OC,O,0,0,3.53,['3.53'],['pKa_prospector']
2225,CN=c1cccccc1NC,O,0,0,10.2,['10.20'],['pKa_prospector']
2226,CNc1ccn(C)c(=O)n1,O,0,0,4.47,['4.47'],['pKa_prospector']
2227,CNc1ccn(C2OC(CO)C(O)C2O)c(=O)n1,O,0,0,3.88,['3.88'],['pKa_prospector']
2228,CNc1ccn(C2CC(O)C(CO)O2)c(=O)n1,O,0,0,3.97,['3.97'],['pKa_prospector']
2229,CNc1ccnc(Cl)n1,O,0,0,2.8,['2.80'],['pKa_prospector']
2230,CNc1cnc2ccccc2n1,O,0,0,4.07,['4.07'],['pKa_prospector']
2231,CNc1cncnc1NC,O,0,0,6.77,['6.77'],['pKa_prospector']
2232,CNc1nc(=N)ccn1C,O,0,0,14,['14.00'],['pKa_prospector']
2233,CNc1nc(Cl)c(SC)c(N2CC[NH+](C)CC2)n1,O,0,0,7.8,['7.80'],['pKa_prospector']
2234,CNc1nc(N)cc(Cl)n1,O,0,0,3.79,['3.79'],['pKa_prospector']
2235,CNc1ncc2nccnc2n1,O,0,0,3.59,['3.59'],['pKa_prospector']
2236,CNc1nccc(Cl)n1,O,0,0,2.59,['2.59'],['pKa_prospector']
2237,CNc1nccc(N(C)C)n1,O,0,0,8.1,['8.10'],['pKa_prospector']
2238,CNc1nccc(OC)n1,O,0,0,5.74,['5.74'],['pKa_prospector']
2239,CNc1nnc(-c2ccccc2)s1,O,0,0,2.8,['2.80'],['pKa_prospector']
2240,COC(=N)c1ccccc1,O,0,0,5.8,['5.80'],['pKa_prospector']
2241,COC(=O)C(C#N)=N[N-]c1c(Cl)cc(C(F)(F)F)cc1Cl,O,0,0,5.05,['5.05'],['pKa_prospector']
2242,COC(=O)C(C#N)=N[N-]c1cc(Cl)c(Cl)c(Cl)c1,O,0,0,5.45,['5.45'],['pKa_prospector']
2243,COC(=O)C(C#N)=N[N-]c1cc(Cl)c(Cl)cc1Cl,O,0,0,5.65,['5.65'],['pKa_prospector']
2244,COC(=O)C(C#N)=N[N-]c1cc(Cl)cc(Cl)c1,O,0,0,5.9,['5.90'],['pKa_prospector']
2245,COC(=O)C(C#N)=N[N-]c1cc(C#N)ccc1C#N,O,0,0,5.2,['5.20'],['pKa_prospector']
2246,COC(=O)C(C#N)=N[N-]c1cc(C(F)(F)F)ccc1Cl,O,0,0,6.2,['6.20'],['pKa_prospector']
2247,COC(=O)C(C#N)=N[N-]c1ccc(Cl)c(C(F)F)c1,O,0,0,6.2,['6.20'],['pKa_prospector']
2248,COC(=O)C(C#N)=N[N-]c1ccc(C(F)(F)F)cc1,O,0,0,6.45,['6.45'],['pKa_prospector']
2249,COC(=O)C(C#N)=N[N-]c1ccc(S(=O)(=O)C(F)(F)F)cc1,O,0,0,5.4,['5.40'],['pKa_prospector']
2250,COC(=O)C(C#N)=N[N-]c1ccc(SC(F)(F)F)cc1,O,0,0,6.4,['6.40'],['pKa_prospector']
2251,COC(=O)C(C#N)=N[N-]c1ccc(Cl)cc1C(F)(F)F,O,0,0,5.7,['5.70'],['pKa_prospector']
2252,COC(=O)C(C#N)=N[N-]c1ccc(C(F)(F)F)cc1[N+](=O)[O-],O,0,0,6,['6.00'],['pKa_prospector']
2253,COC(=O)C(C#N)=N[N-]c1ccc([N+](=O)[O-])cc1S(C)(=O)=O,O,0,0,4.05,['4.05'],['pKa_prospector']
2254,COC(=O)C(C#N)=N[N-]c1ccc2c(c1)OC(F)(F)C(F)(F)O2,O,0,0,5.7,['5.70'],['pKa_prospector']
2255,COC(=O)C(C#N)=N[N-]c1cccc(C(F)(F)F)c1,O,0,0,6.4,['6.40'],['pKa_prospector']
2256,COC(=O)C(C#N)=N[N-]c1cccc(Cl)c1,O,0,0,6.5,['6.50'],['pKa_prospector']
2257,COC(=O)C(C#N)=N[N-]c1ccccc1,O,0,0,7.2,['7.20'],['pKa_prospector']
2258,COC(=O)C(C#N)=N[N-]c1ccccc1C(F)(F)F,O,0,0,6.55,['6.55'],['pKa_prospector']
2259,COC(=O)C(=NO)C(=O)OC,O,0,0,7.18,['7.18'],['pKa_prospector']
2260,COC(=O)C(CC(=O)[O-])(c1ccccc1)c1ccccc1,O,0,0,4.47,['4.47'],['pKa_prospector']
2261,COC(=O)C(CC(=O)[O-])c1ccccc1,O,0,0,4.36,['4.36'],['pKa_prospector']
2262,COC(=O)C(CCC(=O)[O-])(c1ccccc1)c1ccccc1,O,0,0,4.66,['4.66'],['pKa_prospector']
2263,COC(=O)C(CCCC(=O)[O-])(c1ccccc1)c1ccccc1,O,0,0,4.84,['4.84'],['pKa_prospector']
2264,COC(=O)C(CCCCC(=O)[O-])(c1ccccc1)c1ccccc1,O,0,0,4.97,['4.97'],['pKa_prospector']
2265,COC(=O)C(CCCCCC(=O)[O-])(c1ccccc1)c1ccccc1,O,0,0,5.08,['5.08'],['pKa_prospector']
2266,COC(=O)C(CC(=O)[O-])(Cc1ccccc1)c1ccccc1,O,0,0,4.46,['4.46'],['pKa_prospector']
2267,COC(=O)C(CC(=O)[O-])(Cc1ccccc1)Cc1ccccc1,O,0,0,4.66,['4.66'],['pKa_prospector']
2268,COC(=O)C([NH3+])Cc1ccccc1,O,0,0,7,['7.00'],['pKa_prospector']
2269,COC(=O)C(c1ccccc1)C1CCCC[NH2+]1,O,0,0,8.77,['8.77'],['pKa_prospector']
2270,COC(=O)C1=C[NH+]2CCC1CC2,O,0,0,7.17,['7.17'],['pKa_prospector']
2271,COC(=O)C1C(C(=O)[O-])CCCC1C(=O)[O-],O,0,0,4.18,['4.18'],['pKa_prospector']
2272,COC(=O)C1CCCC(C(=O)[O-])C1C(=O)[O-],O,0,0,3.99,['3.99'],['pKa_prospector']
2273,COC(=O)C1CCCC(C(=O)OC)C1C(=O)[O-],O,0,0,4.24,['4.24'],['pKa_prospector']
2274,COC(=O)C1CCCC(C(=O)[O-])C1C(=O)OC,O,0,0,4.52,['4.52'],['pKa_prospector']
2275,COC(=O)C1C[NH+]2CCC1CC2,O,0,0,9.4,['9.40'],['pKa_prospector']
2276,COC(=O)C1CSC[NH2+]1,O,0,0,3.91,['3.91'],['pKa_prospector']
2277,COC(=O)CC(Cc1ccccc1)(Cc1ccccc1)C(=O)[O-],O,0,0,4.88,['4.88'],['pKa_prospector']
2278,COC(=O)CC(Cc1ccccc1)(C(=O)[O-])c1ccccc1,O,0,0,4.06,['4.06'],['pKa_prospector']
2279,COC(=O)CC(C(=O)[O-])(c1ccccc1)c1ccccc1,O,0,0,3.9,['3.90'],['pKa_prospector']
2280,COC(=O)CCC(C(=O)[O-])(c1ccccc1)c1ccccc1,O,0,0,4,['4.00'],['pKa_prospector']
2281,COC(=O)CCCC(C(=O)[O-])(c1ccccc1)c1ccccc1,O,0,0,4.26,['4.26'],['pKa_prospector']
2282,COC(=O)CCCCC(C(=O)[O-])(c1ccccc1)c1ccccc1,O,0,0,4.4,['4.40'],['pKa_prospector']
2283,COC(=O)CCCCCC(C(=O)[O-])(c1ccccc1)c1ccccc1,O,0,0,4.5,['4.50'],['pKa_prospector']
2284,COC(=O)CCCc1c[nH]cn1,O,0,0,7.3,['7.30'],['pKa_prospector']
2285,COC(=O)Nc1nc2ccccc2[nH]1,O,0,0,4.24,['4.24'],['pKa_prospector']
2286,COC(=O)c1c2ccccc2nc2ccccc12,O,0,0,3.41,['3.41'],['pKa_prospector']
2287,COC(=O)c1cc(N)cc2ccccc12,O,0,0,3.38,['3.38'],['pKa_prospector']
2288,COC(=O)c1cc(S(N)(=O)=O)ccc1S(=O)(=O)CCCO,O,0,0,8.9,['8.90'],['pKa_prospector']
2289,COC(=O)c1cc(S(N)(=O)=O)ccc1S(=O)(=O)CCO,O,0,0,9.2,['9.20'],['pKa_prospector']
2290,COC(=O)c1cc(S(N)(=O)=O)ccc1SCCCO,O,0,0,9.3,['9.30'],['pKa_prospector']
2291,COC(=O)c1cc(N)c2ccccc2c1,O,0,0,3.12,['3.12'],['pKa_prospector']
2292,COC(=O)c1ccc(N)cc1,O,0,0,2.47,['2.47'],['pKa_prospector']
2293,COC(=O)c1ccc(O)cc1,O,0,0,8.42,['8.42'],['pKa_prospector']
2294,COC(=O)c1ccc(S(N)(=O)=O)cc1,O,0,0,9.8,['9.80'],['pKa_prospector']
2295,COC(=O)c1ccc2nc3cc(N)ccc3cc2c1,O,0,0,7.1,['7.10'],['pKa_prospector']
2296,COC(=O)c1ccc2ncccc2c1,O,0,0,3.8,['3.80'],['pKa_prospector']
2297,COC(=O)c1ccc2ccccc2n1,O,0,0,1.75,['1.75'],['pKa_prospector']
2298,COC(=O)c1cccc(N)c1,O,0,0,3.55,['3.55'],['pKa_prospector']
2299,COC(=O)c1ccccc1N,O,0,0,2.23,['2.23'],['pKa_prospector']
2300,COC(=O)c1ccccc1O,O,0,0,9.85,['9.85'],['pKa_prospector']
2301,COC(=O)c1ccccn1,O,0,0,2.21,['2.21'],['pKa_prospector']
2302,COC(=O)c1cccnc1,O,0,0,3.13,['3.13'],['pKa_prospector']
2303,COC(=O)c1ccncc1,O,0,0,3.26,['3.26'],['pKa_prospector']
2304,COC(=O)c1ncccn1,O,0,0,-0.68,['-0.68'],['pKa_prospector']
2305,COC(=O)n1cc(F)c(=O)[nH]c1=O,O,0,0,6.8,['6.80'],['pKa_prospector']
2306,COC1=CC23CCC[NH+]2CCc2cc4c(cc2C3C1O)OCO4,O,0,0,9.3,['9.30'],['pKa_prospector']
2307,COC1CCCCC1(c1ccccc1)[NH+]1CCCCC1,O,0,0,8.11,['8.11'],['pKa_prospector']
2308,COC1CCCCC1(c1cccs1)[NH+]1CCCCC1,O,0,0,7.87,['7.87'],['pKa_prospector']
2309,COCC(=O)OCCCS(=O)(=O)c1ccc(S(N)(=O)=O)s1,O,0,0,8.1,['8.10'],['pKa_prospector']
2310,COCC(c1c([O-])c2ccccc2oc1=O)c1c([O-])c2ccccc2oc1=O,O,0,0,9,['9.00'],['pKa_prospector']
2311,COCCC1OCSC1=NO,O,0,0,11.74,['11.74'],['pKa_prospector']
2312,COCCCCC(=O)[O-],O,0,0,4.72,['4.72'],['pKa_prospector']
2313,COCCC[NH2+]Cc1cc2cc(S(N)(=O)=O)sc2s1,O,0,0,7.52,['7.52'],['pKa_prospector']
2314,COCC[NH+](CCCl)CCCl,O,0,0,5.45,['5.45'],['pKa_prospector']
2315,COCC[NH+](CCOC)Cc1cc2sc(S(N)(=O)=O)cc2s1,O,0,0,5.48,['5.48'],['pKa_prospector']
2316,COCC[NH+](CCOC)Cc1cc2cc(S(N)(=O)=O)sc2s1,O,0,0,5.34,['5.34'],['pKa_prospector']
2317,COCCN(CCOC)N=Nc1[nH]cnc1C(N)=O,O,0,0,4.22,['4.22'],['pKa_prospector']
2318,COCCOCC[NH+](CCOC)Cc1cc2cc(S(N)(=O)=O)sc2s1,O,0,0,5.55,['5.55'],['pKa_prospector']
2319,COCC[NH+]1CCc2cccc(Cl)c2CC1,O,0,0,7.21,['7.21'],['pKa_prospector']
2320,COCC[NH2+]Cc1cc2sc(S(N)(=O)=O)cc2s1,O,0,0,6.65,['6.65'],['pKa_prospector']
2321,COCC[NH2+]Cc1cc2cc(S(N)(=O)=O)sc2s1,O,0,0,7,['7.00'],['pKa_prospector']
2322,COCCOCCC[NH2+]Cc1cc2cc(S(N)(=O)=O)sc2s1,O,0,0,7.4,['7.40'],['pKa_prospector']
2323,COCCOCC[NH+](CCOCCOC)Cc1cc2cc(S(N)(=O)=O)sc2s1,O,0,0,5.72,['5.72'],['pKa_prospector']
2324,COCCc1c[nH+]c(-c2ccc(OCC(O)C[NH2+]CCc3ccc(OC)c(OC)c3)cc2)[nH]1,O,0,0,8.05,['8.05'],['pKa_prospector']
2325,COCN1C(=O)CN=C(c2ccccc2)c2cc(Cl)ccc21,O,0,0,2.74,['2.74'],['pKa_prospector']
2326,COCN1C(=O)CN=C(c2ccccc2)c2cc(N)ccc21,O,0,0,3.81,['3.81'],['pKa_prospector']
2327,COCN1C(=O)CN=C(c2ccccc2)c2cc([N+](=O)[O-])ccc21,O,0,0,2.09,['2.09'],['pKa_prospector']
2328,COCN1C(=O)CN=C(c2ccccc2F)c2cc(N)ccc21,O,0,0,3.34,['3.34'],['pKa_prospector']
2329,COCNc1nc(NCOC)nc(NCOC)n1,O,0,0,3.6,['3.60'],['pKa_prospector']
2330,C#CCCCCn1cc[n+](COC)c1C=NO,O,0,0,8.23,['8.23'],['pKa_prospector']
2331,COCc1c[nH+]c(-c2ccc(OCC(O)C[NH2+]CCc3ccc(OC)c(OC)c3)cc2)[nH]1,O,0,0,8.25,['8.25'],['pKa_prospector']
2332,COCn1cc[n+](Cc2ccccc2)c1C=NO,O,0,0,7.9,['7.90'],['pKa_prospector']
2333,COc1nc(=O)c2nccnc2[nH]1,O,0,0,-0.93,['-0.93'],['pKa_prospector']
2334,COc1c(O)c(Cl)c(Cl)c(Cl)c1Cl,O,0,0,6.26,['6.26'],['pKa_prospector']
2335,COc1c(O)cc(Cl)c(Cl)c1Cl,O,0,0,7.56,['7.56'],['pKa_prospector']
2336,COc1c(Br)cc(N)cc1Br,O,0,0,2.98,['2.98'],['pKa_prospector']
2337,COc1c(O)cc(Cc2cnc(N)nc2N)cc1O,O,0,0,7.18,['7.18'],['pKa_prospector']
2338,COc1c(Cl)ccc(Cl)c1C(=O)[O-],O,0,0,1.85,['1.85'],['pKa_prospector']
2339,COc1nc([N-]S(=O)(=O)c2ccc(N)cc2)nc(OC)c1OC,O,0,0,6.54,['6.54'],['pKa_prospector']
2340,COc1nc2ccccc2nc1OC,O,0,0,-1.15,['-1.15'],['pKa_prospector']
2341,COc1nccnc1[N-]S(=O)(=O)c1ccc(N)cc1,O,0,0,6.15,['6.15'],['pKa_prospector']
2342,COc1ncnc([N-]S(=O)(=O)c2ccc(N)cc2)c1OC,O,0,0,5.79,['5.79'],['pKa_prospector']
2343,COc1nc(N)nc2nccnc12,O,0,0,3.44,['3.44'],['pKa_prospector']
2344,COc1ncnc2nccnc12,O,0,0,1.04,['1.04'],['pKa_prospector']
2345,COc1noc2c1C[NH2+]CC2,O,0,0,7.5,['7.50'],['pKa_prospector']
2346,COc1nc2ccccc2c2ccccc12,O,0,0,2.38,['2.38'],['pKa_prospector']
2347,COc1nccc2ccccc12,O,0,0,3.01,['3.01'],['pKa_prospector']
2348,COc1nncc2ccccc12,O,0,0,3.73,['3.73'],['pKa_prospector']
2349,COc1ncnc2ccccc12,O,0,0,3.07,['3.07'],['pKa_prospector']
2350,COc1c(OC)c2cccnc2c2ncccc12,O,0,0,4.4,['4.40'],['pKa_prospector']
2351,COc1cc(=O)n2ccccc2n1,O,0,0,1.36,['1.36'],['pKa_prospector']
2352,COc1cc(=O)nc2sc(S(N)(=O)=O)nn12,O,0,0,7.1,['7.10'],['pKa_prospector']
2353,COc1cc(Cl)c([NH+]=C2NCCN2)c(Cl)c1,O,0,0,8.57,['8.57'],['pKa_prospector']
2354,COc1cc(Cl)c(Nc2ccccc2CC(=O)[O-])c(Cl)c1,O,0,0,4.2,['4.20'],['pKa_prospector']
2355,COc1cc(OC)c(Cl)c(Cc2cnc(N)nc2N)c1Cl,O,0,0,7.25,['7.25'],['pKa_prospector']
2356,COc1cc(Cl)c(Cl)c(Cl)c1O,O,0,0,7.2,['7.20'],['pKa_prospector']
2357,COc1cc(N)c(Cl)cc1C(=O)NC1CCC2CCC1[NH+]2Cc1ccccc1,O,0,0,9.04,['9.04'],['pKa_prospector']
2358,COc1cc(N)c(Cl)cc1C(=O)NC1CC[NH+](Cc2ccccc2)CC1,O,0,0,8.59,['8.59'],['pKa_prospector']
2359,COc1cc(OC)c([NH+]=C2NCCN2)cc1Cl,O,0,0,10.15,['10.15'],['pKa_prospector']
2360,COc1cc(N)c(Cl)cc1NC(=O)C1CC[NH+](Cc2ccccc2)CC1,O,0,0,8.4,['8.40'],['pKa_prospector']
2361,COc1cc(Cl)c(Cl)cc1O,O,0,0,8.52,['8.52'],['pKa_prospector']
2362,COc1cc(OC)c(OC)cc1Cc1cnc(N)nc1N,O,0,0,7.24,['7.24'],['pKa_prospector']
2363,COc1cc(N)cc(Cl)c1,O,0,0,3.1,['3.10'],['pKa_prospector']
2364,COc1cc(N)cc([N+](=O)[O-])c1,O,0,0,2.11,['2.11'],['pKa_prospector']
2365,COc1cc(N)cc(OC)c1,O,0,0,3.82,['3.82'],['pKa_prospector']
2366,COc1cc(Cc2cnc(N)nc2N)cc(O)c1O,O,0,0,7.23,['7.23'],['pKa_prospector']
2367,C=CC[NH+]1CCCC1CNC(=O)c1cc(S(N)(=O)=O)cc(OC)c1OC,O,0,0,8.49,['8.49'],['pKa_prospector']
2368,COC(=O)C1C2CC3c4[nH]c5ccccc5c4CC[NH+]3CC2CC(OC(=O)c2cc(OC)c(OC)c(OC)c2)C1OC,O,0,0,6.68,['6.68'],['pKa_prospector']
2369,COc1cc(CC[NH3+])cc(OC)c1OC,O,0,0,9.56,['9.56'],['pKa_prospector']
2370,COc1cc(Cc2cnc(N)nc2N)cc(OC)c1OC,O,0,0,7.17,['7.17'],['pKa_prospector']
2371,COc1cc(S(=O)(=O)CCN2CCCCC2)cc(OC)c1OC,O,0,0,7.3,['7.30'],['pKa_prospector']
2372,COc1cc(S(=O)(=O)CCN2CCOCC2)cc(OC)c1OC,O,0,0,4.5,['4.50'],['pKa_prospector']
2373,COc1cc(Cc2cnc(N)nc2N)cc(OCc2ccccc2)c1OC,O,0,0,7.15,['7.15'],['pKa_prospector']
2374,COc1cc(Cc2cnc(N)nc2N)cc(OC)c1SC,O,0,0,7.08,['7.08'],['pKa_prospector']