,Solute SMILES,Solvent SMILES,Solute CAS,Solute IUPAC,pKa (avg),pKa (all),Source
1586,CC[NH+](CC)Cc1ccc(OC)cc1,O,0,0,9.7,['9.70'],['pKa_prospector']
1587,CC[NH+](CC)Cc1cccc(OC)c1,O,0,0,9.26,['9.26'],['pKa_prospector']
1588,CC[NH+](CC)Cc1ccccc1,O,0,0,9.43,['9.43'],['pKa_prospector']
1589,CC[NH+](CC)Cc1ccccc1OC,O,0,0,10.27,['10.27'],['pKa_prospector']
1590,CCN(CC)N=Nc1[nH]cnc1C(N)=O,O,0,0,4.43,['4.43'],['pKa_prospector']
1591,CC[NH+](CC)NC(=O)[N-]S(=O)(=O)c1ccc(C)cc1,O,0,0,6.08,['6.08'],['pKa_prospector']
1592,CCN(CC)S(=O)(=O)c1ccc(C(=O)[O-])cc1,O,0,0,3.3,['3.30'],['pKa_prospector']
1593,CCN(CC)c1ncnc2[nH]ncc12,O,0,0,4.67,['4.67'],['pKa_prospector']
1594,CCN(CC)c1ccc(C)cc1,O,0,0,7.13,['7.13'],['pKa_prospector']
1595,CCN(CC)c1ccc(C(O)(c2ccccc2)c2ccc(N(CC)CC)cc2)cc1,O,0,0,7.9,['7.90'],['pKa_prospector']
1596,CCN(CC)c1ccc(N=Nc2ccc(C(=O)OC)cc2)cc1,O,0,0,-2.7,['-2.70'],['pKa_prospector']
1597,CCN(CC)c1ccc(N=Nc2ccc(O)cc2)cc1,O,0,0,-1.89,['-1.89'],['pKa_prospector']
1598,CCN(CC)c1ccc(N=O)cc1,O,0,0,4.11,['4.11'],['pKa_prospector']
1599,CCN(CC)c1ccc(S(N)(=O)=O)cc1,O,0,0,1.75,['1.75'],['pKa_prospector']
1600,CCN(CC)c1ccc([N+](=O)[O-])cc1[N+](=O)[O-],O,0,0,0.18,['0.18'],['pKa_prospector']
1601,CCN(CC)c1cccc(C)c1,O,0,0,7.12,['7.12'],['pKa_prospector']
1602,CCN(CC)c1ccccc1,O,0,0,6.59,['6.59'],['pKa_prospector']
1603,CCN(CC)c1ccccc1C,O,0,0,7.24,['7.24'],['pKa_prospector']
1604,CCN(CC)c1nc(N)nc(N(CC)CC)n1,O,0,0,6.18,['6.18'],['pKa_prospector']
1605,CCN(CC)c1nc(N)nc(N)n1,O,0,0,5.62,['5.62'],['pKa_prospector']
1606,CC[NH+](CCCl)CCCl,O,0,0,6.55,['6.55'],['pKa_prospector']
1607,CCN(CCc1nc2c([nH]1)c(=O)n(C)c(=O)n2CC(C)C)CC[NH+](CC)C(c1ccc(F)cc1)c1ccc(F)cc1,O,0,0,6.7,['6.70'],['pKa_prospector']
1608,CCN(Cc1ccncc1)C(=O)C(CO)c1ccccc1,O,0,0,5.25,['5.25'],['pKa_prospector']
1609,CCN(C1=[NH+]CCN1)c1c(Br)cccc1Br,O,0,0,11.1,['11.10'],['pKa_prospector']
1610,CCN(c1ccccc1)C(C)(C)C,O,0,0,8.02,['8.02'],['pKa_prospector']
1611,CC[NH+]1CC(C)CC(O)C1C(C)c1ccc2c(c1C)CC1C2CC=C2CC(O)CCC21C,O,0,0,7.4,['7.40'],['pKa_prospector']
1612,CC[NH+]1CC2(COC)C(O)CC(OC)C34C5CC6(O)C(OC)C(O)C(OC(C)=O)(C5C6OC(=O)c5ccccc5)C(C(OC)C23)C14,O,0,0,8.35,['8.35'],['pKa_prospector']
1613,CC[NH+]1CCC(CNC(=O)c2cc(S(N)(=O)=O)c(N)cc2OC)C1,O,0,0,9.03,['9.03'],['pKa_prospector']
1614,CC[NH+]1CCC(CNC(=O)c2cc(S(=O)(=O)CC)ccc2OC)C1,O,0,0,9.11,['9.11'],['pKa_prospector']
1615,CC[NH+]1CCC(CNC(=O)c2cc(S(N)(=O)=O)ccc2OC)C1,O,0,0,9,['9.00'],['pKa_prospector']
1616,CC[NH+]1CCCC(=O)C(O)CCC1,O,0,0,9.2,['9.20'],['pKa_prospector']
1617,CC[NH+]1CCCC1CNC(=O)c1cc(N(C)S(C)(=O)=O)c(C)cc1OC,O,0,0,9.1,['9.10'],['pKa_prospector']
1618,CC[NH+]1CCCC1CNC(=O)c1cc(N(C)S(C)(=O)=O)c(Cl)cc1OC,O,0,0,9.1,['9.10'],['pKa_prospector']
1619,CC[NH+]1CCCC1CNC(=O)c1cc(NS(N)(=O)=O)c(Cl)cc1OC,O,0,0,9.1,['9.10'],['pKa_prospector']
1620,CC[NH+]1CCCC1CNC(=O)c1cc(S(=O)(=O)CC)c(N)cc1OC,O,0,0,9.18,['9.18'],['pKa_prospector']
1621,CC[NH+]1CCCC1CNC(=O)c1cc(N(C)S(C)(=O)=O)ccc1OC,O,0,0,9.1,['9.10'],['pKa_prospector']
1622,CC[NH+]1CCCC1CNC(=O)c1cc(NS(N)(=O)=O)ccc1OC,O,0,0,9.1,['9.10'],['pKa_prospector']
1623,CC[NH+]1CCCC1CNC(=O)c1cc(S(=O)(=O)CC)ccc1OC,O,0,0,9.28,['9.28'],['pKa_prospector']
1624,CC[NH+]1CCCC1CNC(=O)c1cc(S(N)(=O)=O)ccc1OC,O,0,0,9.12,['9.12'],['pKa_prospector']
1625,C#CC(C)(C)NS(=O)(=O)c1ccc(OC)c(C(=O)NCC2CCC[NH+]2CC)c1,O,0,0,9.15,['9.15'],['pKa_prospector']
1626,CC[NH+](CC)CC#CC(C)(C)NS(=O)(=O)c1ccc(OC)c(C(=O)NCC2CCC[NH+]2CC)c1,O,0,0,8.71,['8.71'],['pKa_prospector']
1627,C#CCNS(=O)(=O)c1ccc(OC)c(C(=O)NCC2CCC[NH+]2CC)c1,O,0,0,9.19,['9.19'],['pKa_prospector']
1628,CCN1CC[NH+](CC)C(C(=O)Nc2ccccc2)C1,O,0,0,7.21,['7.21'],['pKa_prospector']
1629,CCN1CC[NH+](CC)C(C(=O)Nc2ccccc2C)C1,O,0,0,7.24,['7.24'],['pKa_prospector']
1630,CCN1CCNc2c(C)nc(Cl)nc21,O,0,0,3.76,['3.76'],['pKa_prospector']
1631,CCN1C(=O)CN=C(c2ccccc2)c2cc(Cl)ccc21,O,0,0,3.18,['3.18'],['pKa_prospector']
1632,CCN1C(=O)CN=C(c2ccccc2)c2cc(N)ccc21,O,0,0,4.07,['4.07'],['pKa_prospector']
1633,CCN=C1SC(=NO)C(C)(C)S1,O,0,0,9.7,['9.70'],['pKa_prospector']
1634,CCN=c1sc(-c2ccccc2)nn1CC,O,0,0,7.3,['7.30'],['pKa_prospector']
1635,CCNC(=[NH2+])NC(=[NH2+])Nc1ccc(Cl)cc1,O,0,0,11.01,['11.01'],['pKa_prospector']
1636,CCNC(=O)[N-]S(=O)(=O)c1ccc(C)cc1,O,0,0,5.37,['5.37'],['pKa_prospector']
1637,CCNC(=O)[N-]S(=O)(=O)c1ccc(Cl)cc1,O,0,0,4.67,['4.67'],['pKa_prospector']
1638,CCNC(=O)[N-]S(=O)(=O)c1ccc([N+](=O)[O-])cc1,O,0,0,4.03,['4.03'],['pKa_prospector']
1639,CCNC(=O)[N-]S(=O)(=O)c1ccccc1,O,0,0,5.11,['5.11'],['pKa_prospector']
1640,CCNC(=O)c1cc(Br)cc(C)c1O,O,0,0,7.53,['7.53'],['pKa_prospector']
1641,CCNC(=O)c1cc(Cl)cc(C)c1O,O,0,0,7.64,['7.64'],['pKa_prospector']
1642,CCNC(=O)c1ccc(S(N)(=O)=O)cc1,O,0,0,10.1,['10.10'],['pKa_prospector']
1643,CCNC(=O)n1cc(F)c(=O)[nH]c1=O,O,0,0,6.7,['6.70'],['pKa_prospector']
1644,CC[NH2+]C(C)Cc1cccc(C(F)(F)F)c1,O,0,0,9.1,['9.10'],['pKa_prospector']
1645,CC[NH2+]C(C)Cc1ccccc1,O,0,0,10.23,['10.23'],['pKa_prospector']
1646,CCN=C1C=C([NH2+]CC)CC(C)(C)C1,O,0,0,12.13,['12.13'],['pKa_prospector']
1647,CC[NH2+]C1C2CCC(C2)C1c1ccccc1,O,0,0,8.7,['8.70'],['pKa_prospector']
1648,CCN=CC=CC=C[NH2+]CC,O,0,0,11.7,['11.70'],['pKa_prospector']
1649,CC[NH2+]CC(=O)N(CC)CC,O,0,0,8.78,['8.78'],['pKa_prospector']
1650,CC[NH2+]CC(=O)Nc1c(C)cccc1C,O,0,0,8.04,['8.04'],['pKa_prospector']
1651,CC[NH2+]CCOC(=O)c1ccc(N)cc1,O,0,0,9.38,['9.38'],['pKa_prospector']
1652,CC[NH2+]CCc1ccccc1,O,0,0,10.01,['10.01'],['pKa_prospector']
1653,CC[NH2+]Cc1ccccc1,O,0,0,9.64,['9.64'],['pKa_prospector']
1654,CCNc1nc(=O)n(C2CC(O)C(CO)O2)cc1F,O,0,0,2.21,['2.21'],['pKa_prospector']
1655,CCNc1nc(C)nc2nc[nH]c12,O,0,0,5.01,['5.01'],['pKa_prospector']
1656,CCNc1ncnc2c1cnn2C,O,0,0,4.2,['4.20'],['pKa_prospector']
1657,CCNc1cc[nH]c(=O)n1,O,0,0,4.56,['4.56'],['pKa_prospector']
1658,CCNc1ccc(C)cc1,O,0,0,5.72,['5.72'],['pKa_prospector']
1659,CCNc1ccc(C(=O)OCC[NH+](CC)CC)cc1,O,0,0,9.04,['9.04'],['pKa_prospector']
1660,CCNc1cccc2ccccc12,O,0,0,4.19,['4.19'],['pKa_prospector']
1661,CCNc1ccccc1C,O,0,0,4.96,['4.96'],['pKa_prospector']
1662,CCNc1ccnc(O)n1,O,0,0,4.56,['4.56'],['pKa_prospector']
1663,CCNc1nc(Cl)nc(NC(C)(C)C#N)n1,O,0,0,1.5,['1.50'],['pKa_prospector']
1664,CCNc1nc(Cl)nc(NCC)n1,O,0,0,1.8,['1.80'],['pKa_prospector']
1665,CCNc1nc(N)nc(N)n1,O,0,0,5.23,['5.23'],['pKa_prospector']
1666,CCNc1nc(N)nc(NCC)n1,O,0,0,5.53,['5.53'],['pKa_prospector']
1667,CCNc1nc(NCC)nc(NCC)n1,O,0,0,5.84,['5.84'],['pKa_prospector']
1668,CCNc1nc(NC(C)(C)C)nc(SC)n1,O,0,0,4,['4.00'],['pKa_prospector']
1669,CCNc1nc(NC(C)C)nc(SC)n1,O,0,0,4,['4.00'],['pKa_prospector']
1670,CCNc1nc(NC(C)C(C)C)nc(SC)n1,O,0,0,4,['4.00'],['pKa_prospector']
1671,CCNc1nnc(-c2ccccc2)s1,O,0,0,3.05,['3.05'],['pKa_prospector']
1672,CCOC(=NO)C1CCCCC1,O,0,0,14.23,['14.23'],['pKa_prospector']
1673,CCOC(=NO)c1ccc([N+](=O)[O-])cc1,O,0,0,11.46,['11.46'],['pKa_prospector']
1674,CCOC(=O)C(C#N)=N[N-]c1cc(Cl)c(Cl)c(Cl)c1,O,0,0,5.65,['5.65'],['pKa_prospector']
1675,CCOC(=O)C(C#N)=N[N-]c1cc(Cl)c(Cl)cc1Cl,O,0,0,5.9,['5.90'],['pKa_prospector']
1676,CCOC(=O)C(C#N)=N[N-]c1cc(Cl)cc(Cl)c1,O,0,0,5.95,['5.95'],['pKa_prospector']
1677,CCOC(=O)C(C#N)=N[N-]c1cc(C(F)(F)F)ccc1Cl,O,0,0,6.2,['6.20'],['pKa_prospector']
1678,CCOC(=O)C(C#N)=N[N-]c1ccc(Cl)c(C(F)(F)F)c1,O,0,0,6.1,['6.10'],['pKa_prospector']
1679,CCOC(=O)C(C#N)=N[N-]c1ccc(Cl)c(Cl)c1,O,0,0,6.15,['6.15'],['pKa_prospector']
1680,CCOC(=O)C(C#N)=N[N-]c1ccc([N+](=O)[O-])cc1[N+](=O)[O-],O,0,0,4.95,['4.95'],['pKa_prospector']
1681,CCOC(=O)C(C#N)=N[N-]c1cccc(Cl)c1,O,0,0,6.6,['6.60'],['pKa_prospector']
1682,CCOC(=O)C(C#N)=N[N-]c1ccccc1Cl,O,0,0,7.3,['7.30'],['pKa_prospector']
1683,CCOC(=O)C(I)C(C)=O,O,0,0,7,['7.00'],['pKa_prospector']
1684,CCOC(=O)C(C)(C)Oc1ccc(Cl)cc1,O,0,0,2.95,['2.95'],['pKa_prospector']
1685,CCOC(=O)C(C)SC(C)(C)C=NO,O,0,0,11.63,['11.63'],['pKa_prospector']
1686,CCOC(=O)C([NH3+])CC(C)C,O,0,0,7.57,['7.57'],['pKa_prospector']
1687,CCOC(=O)C(CC(C)[NH+](C)C)(c1ccccc1)c1ccccc1,O,0,0,10.12,['10.12'],['pKa_prospector']
1688,CCOC(=O)C(CC[NH+](C)C)(c1ccccc1)c1ccccc1,O,0,0,9.87,['9.87'],['pKa_prospector']
1689,CCOC(=O)C([NH3+])Cc1ccc(OC)cc1,O,0,0,7.31,['7.31'],['pKa_prospector']
1690,CCOC(=O)C([NH3+])c1ccc(C)cc1,O,0,0,2.57,['2.57'],['pKa_prospector']
1691,CCOC(=O)C([NH3+])c1ccc(Cl)cc1,O,0,0,1.39,['1.39'],['pKa_prospector']
1692,CCOC(=O)C([NH3+])c1ccc(OC)cc1,O,0,0,2.85,['2.85'],['pKa_prospector']
1693,CCOC(=O)C([NH3+])c1cccc(C#N)c1,O,0,0,0.15,['0.15'],['pKa_prospector']
1694,CCOC(=O)C([NH3+])c1cccc(C(C)=O)c1,O,0,0,1.02,['1.02'],['pKa_prospector']
1695,CCOC(=O)C([NH3+])c1cccc(C)c1,O,0,0,2.19,['2.19'],['pKa_prospector']
1696,CCOC(=O)C([NH3+])c1cccc(Cl)c1,O,0,0,0.91,['0.91'],['pKa_prospector']
1697,CCOC(=O)C([NH3+])c1cccc([N+](=O)[O-])c1,O,0,0,-0.17,['-0.17'],['pKa_prospector']
1698,CCOC(=O)C([NH3+])c1cccc(OC)c1,O,0,0,1.67,['1.67'],['pKa_prospector']
1699,CCOC(=O)C([NH3+])c1ccccc1,O,0,0,2.08,['2.08'],['pKa_prospector']
1700,CCOC(=O)C1(c2ccccc2)CCC[NH+](C)CC1,O,0,0,8.45,['8.45'],['pKa_prospector']
1701,CCOC(=O)C1(c2ccccc2)CC[NH+](C)CC1,O,0,0,8.55,['8.55'],['pKa_prospector']
1702,CCOC(=O)C1(c2ccccc2)CC[NH+](CCC(C#N)(c2ccccc2)c2ccccc2)CC1,O,0,0,4.4,['4.40'],['pKa_prospector']
1703,CCOC(=O)C1(c2ccccc2)CC[NH2+]CC1,O,0,0,9.7,['9.70'],['pKa_prospector']
1704,CCOC(=O)C12CCC(C(=O)[O-])(CC1)CC2,O,0,0,6.31,['6.31'],['pKa_prospector']
1705,CCOC(=O)CC(=O)[O-],O,0,0,3.35,['3.35'],['pKa_prospector']
1706,CCOC(=O)CC([NH3+])C(=O)OCC,O,0,0,6.4,['6.40'],['pKa_prospector']
1707,CCOC(=O)CCC(=O)[O-],O,0,0,4.52,['4.52'],['pKa_prospector']
1708,CCOC(=O)CCC([NH3+])C(=O)OCC,O,0,0,7.04,['7.04'],['pKa_prospector']
1709,CCOC(=O)CCCCC(=O)[O-],O,0,0,4.6,['4.60'],['pKa_prospector']
1710,CCOC(=O)CCCCC[NH3+],O,0,0,10.3,['10.30'],['pKa_prospector']
1711,CCOC(=O)CCCC[NH3+],O,0,0,10.51,['10.51'],['pKa_prospector']
1712,CCOC(=O)CCC[NH3+],O,0,0,9.71,['9.71'],['pKa_prospector']
1713,CCOC(=O)CC[NH+](C)C,O,0,0,8.54,['8.54'],['pKa_prospector']
1714,CCOC(=O)CNC(=O)C[NH3+],O,0,0,7.71,['7.71'],['pKa_prospector']
1715,CCOC(=O)CNC(=O)CNC(=O)C[NH3+],O,0,0,7.91,['7.91'],['pKa_prospector']
1716,CCOC(=O)CNc1nc(N(C)C)nc(C(=O)OCC)c1N,O,0,0,6.12,['6.12'],['pKa_prospector']
1717,CCOC(=O)CNc1cc(N)nc(Cl)n1,O,0,0,2.61,['2.61'],['pKa_prospector']
1718,CCOC(=O)CSC(C)=NO,O,0,0,11.3,['11.30'],['pKa_prospector']
1719,CCOC(=O)CSC(=NO)C(C)(C)S(C)(=O)=O,O,0,0,8.9,['8.90'],['pKa_prospector']
1720,CCOC(=O)N1CCC(=C2c3ccc(Cl)cc3CCc3cccnc32)CC1,O,0,0,4.58,['4.58'],['pKa_prospector']
1721,CCOC(=O)N1CC[NH+](C)CC1,O,0,0,7.31,['7.31'],['pKa_prospector']
1722,C#CC[NH+]1CCN(C(=O)OCC)CC1,O,0,0,5.44,['5.44'],['pKa_prospector']
1723,CCOC(=O)N1CC[NH2+]CC1,O,0,0,8.25,['8.25'],['pKa_prospector']
1724,CCOC(=O)/N=[N+](/[O-])c1ccc(C(=O)[O-])cc1,O,0,0,4.62,['4.62'],['pKa_prospector']
1725,CCOC(=O)NC(N)=[NH2+],O,0,0,7.03,['7.03'],['pKa_prospector']
1726,CCOC(=O)NCC(=O)[O-],O,0,0,3.66,['3.66'],['pKa_prospector']
1727,CCOC(=O)Nc1ccc2c(c1)N(C(=O)CC[NH+]1CCOCC1)c1ccccc1S2,O,0,0,6.26,['6.26'],['pKa_prospector']
1728,CCOC(=O)OCn1c(=O)[nH]cc(F)c1=O,O,0,0,7.9,['7.90'],['pKa_prospector']
1729,CCOC(=O)c1[nH]c(=S)nc(N)c1N,O,0,0,2.11,['2.11'],['pKa_prospector']
1730,CCOC(=O)c1nc(Cl)nc(N)c1N,O,0,0,1.27,['1.27'],['pKa_prospector']
1731,CCOC(=O)c1nc([S-])nc(N)c1N,O,0,0,2.11,['2.11'],['pKa_prospector']
1732,CCOC(=O)c1c(C)nc(C)c(C(=O)[O-])c1-c1cccc(Cl)c1Cl,O,0,0,3.51,['3.51'],['pKa_prospector']
1733,CCOC(=O)c1nc(=O)[nH]c2c1NC(=O)CN2,O,0,0,1.75,['1.75'],['pKa_prospector']
1734,CCOC(=O)c1nc(Cl)nc2c1N=C(O)CN2,O,0,0,-0.54,['-0.54'],['pKa_prospector']
1735,CCOC(=O)c1nc(N(C)C)nc2c1N=C(O)CN2,O,0,0,4.53,['4.53'],['pKa_prospector']
1736,CCOC(=O)c1nc(O)nc2c1N=C(O)CN2,O,0,0,1.75,['1.75'],['pKa_prospector']
1737,CCOC(=O)c1ccc(S(N)(=O)=O)cc1,O,0,0,9.7,['9.70'],['pKa_prospector']
1738,CCOC(=O)c1ccccc1N,O,0,0,2.18,['2.18'],['pKa_prospector']
1739,CCOC(=O)c1ccccc1N(C)C,O,0,0,5.48,['5.48'],['pKa_prospector']
1740,CCOC(=O)c1ccccc1S(=O)(=O)[N-]C(=O)Nc1nc(Cl)cc(OC)n1,O,0,0,4.2,['4.20'],['pKa_prospector']
1741,CCOC(=O)c1cccnc1,O,0,0,3.35,['3.35'],['pKa_prospector']
1742,CCOC(=O)c1ccncc1,O,0,0,3.45,['3.45'],['pKa_prospector']
1743,CCOC(=O)n1c(=O)[nH]cc(F)c1=O,O,0,0,8.6,['8.60'],['pKa_prospector']
1744,CCOC(=O)n1cc(F)c(=O)[nH]c1=O,O,0,0,6.9,['6.90'],['pKa_prospector']
1745,CCOC(C(=O)C[NH+](C)C)(c1ccccc1)c1ccccc1,O,0,0,7.41,['7.41'],['pKa_prospector']
1746,CCOC(C(=O)C[NH+]1CCCC1)(c1ccccc1)c1ccccc1,O,0,0,7.9,['7.90'],['pKa_prospector']
1747,CCOC(C(=O)C[NH+]1CCCCC1)(c1ccccc1)c1ccccc1,O,0,0,7.65,['7.65'],['pKa_prospector']
1748,CCOC(C(=O)C[NH+]1CCOCC1)(c1ccccc1)c1ccccc1,O,0,0,6,['6.00'],['pKa_prospector']
1749,CCOC1(c2ccccc2)OCC[NH+](C)C1C,O,0,0,7.79,['7.79'],['pKa_prospector']
1750,CCOCCCC(=O)[O-],O,0,0,4.7,['4.70'],['pKa_prospector']
1751,CCOCC[NH+](CCOCC)CC(O)c1cc(-c2ccc(Cl)c(Cl)c2)nc2ccccc12,O,0,0,6.54,['6.54'],['pKa_prospector']
1752,CCOCC[NH2+]CC(O)COc1ccc(-c2[nH]c(-c3cccs3)c[nH+]2)cc1,O,0,0,7.7,['7.70'],['pKa_prospector']
1753,CCOCc1c[nH+]c(-c2ccc(OCC(O)C[NH2+]CCc3ccc(OC)c(OC)c3)cc2)[nH]1,O,0,0,7.78,['7.78'],['pKa_prospector']
1754,CCOCn1cc[n+](C)c1C=NO,O,0,0,8.07,['8.07'],['pKa_prospector']
1755,CCOP(=O)(OCC)c1ccc(C(=O)[O-])cc1,O,0,0,4.25,['4.25'],['pKa_prospector']
1756,CCOP(=O)(OCC)c1ccc(O)cc1,O,0,0,8.28,['8.28'],['pKa_prospector']
1757,CCOP(=O)(OCC)c1cccc(C(=O)[O-])c1,O,0,0,4.35,['4.35'],['pKa_prospector']
1758,CCOP(=O)(OCC)c1cccc(O)c1,O,0,0,8.66,['8.66'],['pKa_prospector']
1759,CCOc1ncnc([N-]S(=O)(=O)c2ccc(N)cc2)c1OC,O,0,0,5.92,['5.92'],['pKa_prospector']
1760,CCOc1cc(Cc2cnc(N)nc2N)cc(OCC)c1C(C)(C)O,O,0,0,7.04,['7.04'],['pKa_prospector']
1761,CCOc1cc(Cc2cnc(N)nc2N)cc(OCC)c1-n1cccc1,O,0,0,7,['7.00'],['pKa_prospector']
1762,CCOc1cc(N)ccc1C(=O)[O-],O,0,0,5.09,['5.09'],['pKa_prospector']
1763,CCOc1cc([N-]S(=O)(=O)c2ccc(N)cc2)nc(OCC)n1,O,0,0,6.04,['6.04'],['pKa_prospector']
1764,CCOc1ccc(C(=O)[O-])cc1,O,0,0,5.42,['5.42'],['pKa_prospector']
1765,CCOc1ccc(C(=O)c2ccc3n2CCC3C(=O)[O-])cc1,O,0,0,3.46,['3.46'],['pKa_prospector']
1766,CCOc1ccc(C=NNC(N)=[NH2+])cc1,O,0,0,9.3,['9.30'],['pKa_prospector']
1767,CCOc1ccc(N)cc1,O,0,0,5.2,['5.20'],['pKa_prospector']
1768,CCOc1ccc(NC(C)=[NH+]c2ccc(OCC)cc2)cc1,O,0,0,9.27,['9.27'],['pKa_prospector']
1769,CCOc1ccc(NC(C)=O)cc1,O,0,0,2.2,['2.20'],['pKa_prospector']
1770,CCOc1ccc(NC(=O)C[NH+]2CCCCC2)cc1,O,0,0,7.95,['7.95'],['pKa_prospector']
1771,CCOc1ccc(NC(=O)OCC[NH+]2CCCCC2)cc1,O,0,0,8.9,['8.90'],['pKa_prospector']
1772,CCOc1ccc(O)cc1,O,0,0,10.27,['10.27'],['pKa_prospector']
1773,CCOc1ccc2[nH+]c(C=CC=Cc3ccccc3)cc(N)c2c1,O,0,0,9.5,['9.50'],['pKa_prospector']
1774,CCOc1ccc2[nH+]c(C=Cc3ccccc3)cc(N)c2c1,O,0,0,9.5,['9.50'],['pKa_prospector']
1775,CCOc1ccc2nccc(Cl)c2c1,O,0,0,3.82,['3.82'],['pKa_prospector']
1776,CCOc1ccc2c(N)c3cc([N+](=O)[O-])ccc3[nH+]c2c1,O,0,0,7.5,['7.50'],['pKa_prospector']
1777,CCOc1ccc2nc(S(N)(=O)=O)sc2c1,O,0,0,8.1,['8.10'],['pKa_prospector']
1778,CCOc1ccc2nc(S(=O)(=O)NC)sc2c1,O,0,0,9.1,['9.10'],['pKa_prospector']
1779,CCOc1ccc2nc(S(=O)(=O)[N-]C(C)=O)sc2c1,O,0,0,2.95,['2.95'],['pKa_prospector']
1780,CCOc1ccc2c3c1OC1C(O)C=CC4C(C2)[NH+](C)CCC341,O,0,0,7.99,['7.99'],['pKa_prospector']
1781,CCOc1ccc2ccccc2c1C(=O)NC1C(=O)N2C1SC(C)(C)C2C(=O)[O-],O,0,0,2.7,['2.70'],['pKa_prospector']
1782,CCOc1cccc(C(=O)[O-])c1,O,0,0,4.9,['4.90'],['pKa_prospector']
1783,CCOc1cccc(C(=O)c2ccc3n2CCC3C(=O)[O-])c1,O,0,0,3.46,['3.46'],['pKa_prospector']
1784,CCOc1cccc(C[NH2+]C(Cc2ccccc2)Cc2ccccc2)c1,O,0,0,6.4,['6.40'],['pKa_prospector']
1785,CCOc1cccc(N)c1,O,0,0,4.18,['4.18'],['pKa_prospector']
1786,CCOc1cccc(NC(=O)OCC[NH+]2CCCCC2)c1,O,0,0,8.87,['8.87'],['pKa_prospector']
1787,CCOc1cccc(C(=O)[O-])c1CO,O,0,0,3.62,['3.62'],['pKa_prospector']
1788,CCOc1ccccc1C(=O)[O-],O,0,0,4.21,['4.21'],['pKa_prospector']
1789,CCOc1ccccc1N,O,0,0,4.43,['4.43'],['pKa_prospector']
1790,CCOc1ccccc1NC(=O)OCC[NH+]1CCCCC1,O,0,0,8.88,['8.88'],['pKa_prospector']
1791,CCOc1cnc([N-]S(=O)(=O)c2ccccc2)nc1,O,0,0,5.78,['5.78'],['pKa_prospector']
1792,CCOC(=O)CNc1nc(OCC)nc(C(=O)OCC)c1N,O,0,0,4.58,['4.58'],['pKa_prospector']
1793,CCOC(=O)c1nc(OCC)nc2c1N=C(O)CN2,O,0,0,3.14,['3.14'],['pKa_prospector']
1794,CCS(=O)(=O)C(C)(C)C(Cl)=NO,O,0,0,8.68,['8.68'],['pKa_prospector']
1795,CCS(=O)(=O)C(C)(C)C(=NO)SC,O,0,0,9.34,['9.34'],['pKa_prospector']
1796,CCS(=O)(=O)C(C)C(=O)[O-],O,0,0,2.49,['2.49'],['pKa_prospector']
1797,CCS(=O)(=O)CCn1c([N+](=O)[O-])c[nH+]c1C,O,0,0,1.82,['1.82'],['pKa_prospector']
1798,CCS(=O)(=O)c1cc(C(=O)NCC2CCC[NH+]2C)c(OC)cc1N,O,0,0,9.38,['9.38'],['pKa_prospector']
1799,CCS(=O)(=O)c1ccc(C(F)(F)F)cc1[N-]N=C(C#N)C(C)=O,O,0,0,3.75,['3.75'],['pKa_prospector']
1800,CCSC(C)C(=O)[O-],O,0,0,3.8,['3.80'],['pKa_prospector']
1801,CCSc1ccc2c(c1)N(CCCN1CC[NH+](C)CC1)c1ccccc1S2,O,0,0,8.12,['8.12'],['pKa_prospector']
1802,CCSc1nc(NC(C)C)nc(NC(C)C)n1,O,0,0,4,['4.00'],['pKa_prospector']
1803,CCSc1nccc(=O)n1C,O,0,0,0.9,['0.90'],['pKa_prospector']
1804,CC[N+](C)(C)Cc1ccccn1,O,0,0,3.05,['3.05'],['pKa_prospector']
1805,CC[N+](C)(CC)CCn1cc[n+](C)c1C=NO,O,0,0,7.6,['7.60'],['pKa_prospector']
1806,CC[N+](C)(CC)Cc1ccccn1,O,0,0,3.06,['3.06'],['pKa_prospector']
1807,CC[n+]1ccn(COCCS(C)(=O)=O)c1C=NO,O,0,0,7.94,['7.94'],['pKa_prospector']
1808,CCc1nc2cc3c(cc2[nH]1)CCCC3,O,0,0,6.6,['6.60'],['pKa_prospector']
1809,CCc1nc2ccccc2[nH]1,O,0,0,6.18,['6.18'],['pKa_prospector']
1810,CCc1c(C)[nH]c2c1C(=O)C(C[NH+]1CCOCC1)CC2,O,0,0,6.89,['6.89'],['pKa_prospector']
1811,CCc1c(C)[nH]c2c1C(=O)C1C[NH+](C)CCC1C2,O,0,0,7.9,['7.90'],['pKa_prospector']
1812,CCc1nc(N)nc(N)c1-c1ccc(Cl)c(Cl)c1,O,0,0,7.2,['7.20'],['pKa_prospector']
1813,CCc1nc(N)nc(N)c1-c1ccc(Cl)cc1,O,0,0,7.27,['7.27'],['pKa_prospector']
1814,CCc1c(C)nnc(C)c1C,O,0,0,5.17,['5.17'],['pKa_prospector']
1815,CCc1c(C)nc2cccc(C)n2c1=O,O,0,0,4.74,['4.74'],['pKa_prospector']
1816,CCc1c(C)nc2n(c1=O)C(C)CCC2,O,0,0,4.73,['4.73'],['pKa_prospector']
1817,CCc1cc(C)cc(O)c1,O,0,0,10.1,['10.10'],['pKa_prospector']
1818,CCc1cc(Cc2cnc(N)nc2N)cc(CC)c1CC,O,0,0,7.12,['7.12'],['pKa_prospector']
1819,CCc1cc(NC(C)=O)cc(CC)c1O,O,0,0,10.56,['10.56'],['pKa_prospector']
1820,CCc1cc([N+](=O)[O-])cc([N+](=O)[O-])c1[O-],O,0,0,4.43,['4.43'],['pKa_prospector']
1821,CCc1cc(NC(C)=O)ccc1O,O,0,0,10.26,['10.26'],['pKa_prospector']
1822,CCc1cc(C)nnc1C,O,0,0,4.73,['4.73'],['pKa_prospector']
1823,CCc1cc2c(s1)N(C)C(=O)CN=C2c1ccccc1Cl,O,0,0,3.6,['3.60'],['pKa_prospector']
1824,CCc1cnc2c(ccc3cccnc32)c1,O,0,0,4.96,['4.96'],['pKa_prospector']
1825,CCc1ccc(C(=O)OCC[NH+](CC)CC)cc1,O,0,0,8.97,['8.97'],['pKa_prospector']
1826,CCc1ccc(N(C)C)cc1,O,0,0,4.69,['4.69'],['pKa_prospector']
1827,CCc1ccc(NC(=O)C[NH+]2CCCCC2)cc1,O,0,0,8.09,['8.09'],['pKa_prospector']
1828,CCc1ccc(S(N)(=O)=O)cc1,O,0,0,10.4,['10.40'],['pKa_prospector']
1829,CCc1ccc(-c2ccccc2C(=O)[O-])cc1,O,0,0,3.94,['3.94'],['pKa_prospector']
1830,CCc1ccc2c(c1)C(c1ccccc1F)=NCC(=O)N2,O,0,0,3.41,['3.41'],['pKa_prospector']
1831,CCc1cccc(CC)c1[NH+]=C1NCCN1,O,0,0,10.69,['10.69'],['pKa_prospector']
1832,CCc1cccc(C(C)C)n1,O,0,0,5.36,['5.36'],['pKa_prospector']
1833,CCc1cccc2cc(C(O)C[NH2+]C(C)(C)C)oc12,O,0,0,8.97,['8.97'],['pKa_prospector']
1834,CCc1cccc2nc(C)cc(=O)n12,O,0,0,4.02,['4.02'],['pKa_prospector']
1835,CCc1ccccc1C(C)C1C(=O)NC(=O)N(C)C1=O,O,0,0,8.09,['8.09'],['pKa_prospector']
1836,CCc1ccccc1C12CCC[NH+]1CCO2,O,0,0,10.76,['10.76'],['pKa_prospector']
1837,CCc1ccccc1C=CCC1C(=O)NC(=O)N(C)C1=O,O,0,0,7.79,['7.79'],['pKa_prospector']
1838,CCc1ccccc1CCCC1C(=O)NC(=O)N(C)C1=O,O,0,0,7.99,['7.99'],['pKa_prospector']
1839,CCc1ccnc2c1ccc1cccnc12,O,0,0,5.42,['5.42'],['pKa_prospector']
1840,CCc1ccnc2c1ccc1c(CC)ccnc12,O,0,0,5.58,['5.58'],['pKa_prospector']
1841,CCc1cnc(NC)nc1,O,0,0,4.29,['4.29'],['pKa_prospector']
1842,CCc1cnc([N-]S(=O)(=O)c2ccc(N)cc2)nc1,O,0,0,6.67,['6.67'],['pKa_prospector']
1843,CCc1cnc([N-]S(=O)(=O)c2ccccc2)nc1,O,0,0,6.14,['6.14'],['pKa_prospector']
1844,CCc1cnc2cccc(C)n2c1=O,O,0,0,4.09,['4.09'],['pKa_prospector']
1845,CCc1c[nH+]ccc1N(C)C,O,0,0,8.67,['8.67'],['pKa_prospector']
1846,CCc1c[nH+]ccc1NC,O,0,0,9.89,['9.89'],['pKa_prospector']
1847,CCc1nc([N-]S(=O)(=O)c2ccc(N)cc2)c(OC)c(OC)n1,O,0,0,6.4,['6.40'],['pKa_prospector']
1848,CCc1nc([N-]S(=O)(=O)c2ccc(N)cc2)cc(OC)n1,O,0,0,6.38,['6.38'],['pKa_prospector']
1849,CCn1nc(-c2ccccc2)sc1=N,O,0,0,7.9,['7.90'],['pKa_prospector']
1850,CCn1nc(S(N)(=O)=O)sc1=NC(C)=O,O,0,0,7.4,['7.40'],['pKa_prospector']