,Solute SMILES,Solvent SMILES,Solute CAS,Solute IUPAC,pKa (avg),pKa (all),Source (all)
1322,[NH3+]c1ccccc1,CS(=O)C,65756-50-5,phenylazanium,3.5949999999999998,"[3.59, 3.6]","[""['pKa_values_of_acids_and_bases_in_MeCN_DCE_DMSO_H2O_THF_C7_DME.pdf', 'Bases_pKa_values_MeCN_DMSO_THF_Water.pdf']""]"
1323,O=C(NS(=O)(=O)C(F)(F)F)c1ccccc1,CC#N,39062-91-4,N-(trifluoromethylsulfonyl)benzamide,11.063333333333333,"[11.06, 11.06, 11.07]","[""['leito_acids']"", ""['MeCN_Acids_COSMO-RS_2008_Table.pdf', 'Ejoc202001649-sup-00001-misc_information.pdf']""]"
1324,N#CC(C#N)=CC(C#N)C#N,CC#N,32019-26-4,"prop-1-ene-1,1,3,3-tetracarbonitrile",5.64,[5.64],"[""['pKa_values_of_acids_in_acetonitrile.pdf']""]"
1325,Cc1c(C2(c3cc(Br)c(O)c(Br)c3C)OS(=O)(=O)c3ccccc32)cc(Br)c(O)c1Br,CC#N,76-60-8,"2,6-dibromo-4-[3-(3,5-dibromo-4-hydroxy-2-methylphenyl)-1,1-dioxo-2,16-benzoxathiol-3-yl]-3-methylphenol",11.0,[11.0],"[""['a_unified_view_to_bronsted_acidity_scales.pdf']""]"
1326,O=P1(NS(=O)(=O)C(F)(F)C(F)(F)C(F)(F)C(F)(F)F)Oc2c(-c3ccccc3)cc3c(c2-c2c4c(cc(C5C=CC=CC5)c2O1)CCCC4)CCCC3,CC#N,1261302-67-3,,6.7,[6.7],"[""['leito_acids']""]"
1327,CC1=CCCC[NH2+:7]1,O,0,0,9.53,[9.53],"[""['hunt_et_al']""]"
1328,c1ccc2[nH+]ccnc2c1,O,,quinoxalin-1-ium,0.56,[0.56],"[""['pKa_values_of_nitrogen_heterocycles.pdf']""]"
1329,O=S(=O)(c1ccccc1)N1CC[NH+:18](Cc2ccccc2)CC1,O,0,0,5.6,[5.6],"[""['hunt_et_al']""]"
1330,c1c[nH+][nH]n1,C1CCOC1,-,2H-triazol-1-ium,2.5,[2.5],"[""['Bases_pKa_values_MeCN_DMSO_THF_Water.pdf']""]"
1331,O=[N+]([O-])c1ccc([NH+:12]2CCCCC2)c([N+](=O)[O-])c1,O,0,0,-0.38,[-0.38],"[""['hunt_et_al']""]"
1332,C[NH+:9](C)c1ccc([N+](=O)[O-])cc1,O,0,0,0.607,[0.607],"[""['hunt_et_al']""]"
1333,CCCc1ccc([OH:14])c2ncccc12,O,0,0,9.7,[9.7],"[""['hunt_et_al']""]"
1334,C[NH2+:9]Cc1cccc([N+](=O)[O-])c1,O,0,0,8.77,[8.77],"[""['hunt_et_al']""]"
1335,ClC(Cl)(Cl)C[NH3+:3],O,0,0,5.47,[5.47],"[""['hunt_et_al']""]"
1336,Cc1ccc(S(=O)(=O)[NH:17]C(=O)NN2CCCCCC2)cc1,O,0,0,5.8,[5.8],"[""['hunt_et_al']""]"
1337,O=S(=O)(NS(=O)(=O)C(F)(F)C(F)(F)F)C(F)(F)C(F)(F)F,C(CCl)Cl,152894-10-5,"1,1,2,2,2-pentafluoro-N-(1,1,2,2,2-pentafluoroethylsulfonyl)ethanesulfonamide",32.6,[32.6],"[""['leito_acids']""]"
1338,CCOC(=O)N1CCC2(CC1)Nc1cccc(Cl)c1C(N)=[NH+:16]2,O,0,0,9.0,[9.0],"[""['hunt_et_al']""]"
1339,CN(C)c1cccc2cccc([NH+](C)C)c12,CC#N,-,[8-(dimethylamino)naphthalen-1-yl]-dimethylazanium,18.63,[18.63],"[""['Bases_pKa_values_MeCN_DMSO_THF_Water.pdf']""]"
1340,O=C(c1cc([N+](=O)[O-])cc(C(F)(F)F)c1)N(c1ccccc1)[OH:20],O,0,0,7.85,[7.85],"[""['hunt_et_al']""]"
1341,Oc1ccccc1,O,108-95-2,phenol,9.99,[9.99],"[""['Ejoc202001649-sup-00001-misc_information.pdf']""]"
1342,CC(=C(C#N)C#N)C(C#N)C#N,CC#N,24943-63-3,"2-methylprop-1-ene-1,1,3,3-tetracarbonitrile",7.36,[7.36],"[""['pKa_values_of_acids_in_acetonitrile.pdf']""]"
1343,Cc1nn(-c2ccccc2)c(NC(=O)[NH:23]S(=O)(=O)c2ccc(Cl)cc2)c1C#N,O,0,0,2.3,[2.3],"[""['hunt_et_al']""]"
1344,C[NH+:20]1CCN(c2c(F)cc3c(=O)c(C(=O)[O-])cn(CCF)c3c2F)CC1,O,0,0,7.91,[7.91],"[""['hunt_et_al']""]"
1345,BrCCC[NH3+:4],O,0,0,8.93,[8.93],"[""['hunt_et_al']""]"
1346,C[C@H](CCC(C(=O)[O-])(c1ccccc1)c1ccccc1)[NH+:21](C)C,O,0,0,10.88,[10.88],"[""['hunt_et_al']""]"
1347,CN(C)CC[NH+](C)C,O,-,2-(dimethylamino)ethyl-dimethylazanium,9.15,[9.15],"[""['Bases_pKa_values_MeCN_DMSO_THF_Water.pdf']""]"
1348,c1ccc(C(c2ccccc2)[NH2+:21]CC2CCCCC2)cc1,O,0,0,6.95,[6.95],"[""['hunt_et_al']""]"
1349,Clc1cc(Br)cc(Cl)c1[OH:7],O,0,0,6.21,[6.21],"[""['hunt_et_al']""]"
1350,CCCCC[C@H](c1ccccc1)[NH3+:13],O,0,0,8.87,[8.87],"[""['hunt_et_al']""]"
1351,O=C([C@H](CO)c1ccccc1)[OH:11],O,0,0,3.53,[3.53],"[""['hunt_et_al']""]"
1352,Cc1cc(C)cc([NH2+:18][C@H]2CCc3ccccc32)c1,O,0,0,1.3,[1.3],"[""['hunt_et_al']""]"
1353,C[OH:2],O,0,0,15.5,[15.5],"[""['hunt_et_al']""]"
1354,Nc1c(S(=O)(=O)F)cc(S(=O)(=O)F)cc1S(=O)(=O)F,CC#N,133213-11-3,"2-aminobenzene-1,3,5-trisulfonyl fluoride",19.66,"[19.66, 19.66, 19.66]","[""['MeCN_Acids_COSMO-RS_2008_Table.pdf', 'Ejoc202001649-sup-00001-misc_information.pdf', 'leito_acids']""]"
1355,Cc1cc([OH:12])cc(C)c1[N+](=O)[O-],O,0,0,8.25,[8.25],"[""['hunt_et_al']""]"
1356,O=C(c1ccc(Br)cc1)[OH:9],O,0,0,3.97,[3.97],"[""['hunt_et_al']""]"
1357,O=C([C@@H](Br)CBr)[OH:5],O,0,0,2.33,[2.33],"[""['hunt_et_al']""]"
1358,O=[N+]([O-])c1ccc([NH:14]S(=O)(=O)c2ccc(Cl)c(C(F)(F)F)c2)c(Cl)c1,O,0,0,4.89,[4.89],"[""['hunt_et_al']""]"
1359,Cc1cc(C)cc([NH3+:9])c1,O,0,0,4.91,[4.91],"[""['hunt_et_al']""]"
1360,CN(C)[P+](NC(C)(C)C)(N(C)C)N(C)C,C1CCOC1,-,(tert-butylamino)-tris(dimethylamino)phosphanium,18.9,[18.9],"[""['Bases_pKa_values_MeCN_DMSO_THF_Water.pdf']""]"
1361,C[NH+:5]1CCC1,O,0,0,10.4,[10.4],"[""['hunt_et_al']""]"
1362,N#CC1=CC(C#N)C=C1C#N,CC#N,215395-09-8,"cyclopenta-2,5-diene-1,2,4-tricarbonitrile",3.75,"[4.16, 3.68, 3.68, 3.65, 3.65, 3.68]","[""['MeCN_Acids_COSMO-RS_2008_Table.pdf', 'DCE_2011_pKa_Table_MeCN.pdf', 'a_unified_view_to_bronsted_acidity_scales.pdf', 'pKa_values_of_acids_in_acetonitrile.pdf', 'Ejoc202001649-sup-00001-misc_information.pdf', 'leito_acids']""]"
1363,O=C([C@H](O)C(Cl)(Cl)Cl)[OH:5],O,0,0,2.34,[2.34],"[""['hunt_et_al']""]"
1364,Cc1cccc(C[NH2+:10]C)n1,O,0,0,9.15,[9.15],"[""['hunt_et_al']""]"
1365,O=C([C@H](c1ccccc1)N1CCC(CN2CCC(Oc3ccc(Cl)c(Cl)c3)CC2)CC1)[OH:29],O,0,0,3.0,[3.0],"[""['hunt_et_al']""]"
1366,O=C(c1cc([N+](=O)[O-])cc([N+](=O)[O-])c1O)[OH:16],O,0,0,0.7,[0.7],"[""['hunt_et_al']""]"
1367,O=[N+]([O-])c1ccc(O)c([N+](=O)[O-])c1,C1CCOC1,51-28-5,"2,4-dinitrophenol",16.94,[16.94],"[""['pKa_values_of_acids_and_bases_in_MeCN_DCE_DMSO_H2O_THF_C7_DME.pdf']""]"
1368,C[C@H]1C[C@@H](C)C[NH+:9](C)C1,O,0,0,10.0,[10.0],"[""['hunt_et_al']""]"
1369,CN1CCC[NH+]2CCCN=C12,CC#N,-,"1-methyl-3,4,5,6,7,8-hexahydro-2H-pyrimido[1,2-a]pyrimidin-5-ium",25.47,[25.47],"[""['Bases_pKa_values_MeCN_DMSO_THF_Water.pdf']""]"
1370,CN(C)C(=N)[NH+](C)C,CS(=O)C,-,"(N,N-dimethylcarbamimidoyl)-dimethylazanium",13.2,"[13.2, 13.2]","[""['pKa_values_of_acids_and_bases_in_MeCN_DCE_DMSO_H2O_THF_C7_DME.pdf', 'Bases_pKa_values_MeCN_DMSO_THF_Water.pdf']""]"
1371,c1ccc2nc([OH:11])ccc2c1,O,0,0,11.76,[11.76],"[""['hunt_et_al']""]"
1372,C[C@@H]1CCC[N@H+:8](C)C1,O,0,0,10.02,[10.02],"[""['hunt_et_al']""]"
1373,N#CC(C#N)S(=O)(=O)C(F)(F)F,C(CCl)Cl,278796-64-8,2-(trifluoromethylsulfonyl)propanedinitrile,33.5,[33.5],"[""['leito_acids']""]"
1374,CC[NH2+:9]c1ccc([N+](=O)[O-])cc1,O,0,0,0.94,[0.94],"[""['hunt_et_al']""]"
1375,CC(C)[NH2+:13]C[C@H](O)c1ccccc1C(F)(F)F,O,0,0,9.31,[9.31],"[""['hunt_et_al']""]"
1376,COCC[NH2+:7]CCOC,O,0,0,9.51,[9.51],"[""['hunt_et_al']""]"
1377,c1ccc2[nH]ccc2c1,O,120-72-9,1H-indole,16.97,[16.97],"[""['Ejoc202001649-sup-00001-misc_information.pdf']""]"
1378,COC(=O)C[C@@H](C(=O)[OH:14])c1ccccc1,O,0,0,4.05,[4.05],"[""['hunt_et_al']""]"
1379,COc1ccc([N+](=O)[O-])cc1[NH3+:8],O,0,0,2.49,[2.49],"[""['hunt_et_al']""]"
1380,Cl[C@H]1CCCC[C@@H]1[NH3+:7],O,0,0,9.49,[9.49],"[""['hunt_et_al']""]"
1381,C[NH2+:8]c1ccc(Cl)cc1[N+](=O)[O-],O,0,0,-1.49,[-1.49],"[""['hunt_et_al']""]"
1382,CC[NH+:11](CC)c1ccc([N+](=O)[O-])cc1[N+](=O)[O-],O,0,0,0.18,[0.18],"[""['hunt_et_al']""]"
1383,O=S(=O)(c1ccc(Cl)cc1)[NH:13]c1ccccc1,O,0,0,7.98,[7.98],"[""['hunt_et_al']""]"
1384,O=[N+]([O-])c1cc([NH3+:7])ccc1Br,O,0,0,1.8,[1.8],"[""['hunt_et_al']""]"
1385,c1ccc([SH:7])cc1,O,0,0,6.62,[6.62],"[""['hunt_et_al']""]"
1386,Cc1cc([N+](=O)[O-])cc([N+](=O)[O-])c1O,CC#N,534-52-1,"2-methyl-4,6-dinitrophenol",16.97,[16.97],"[""['Ejoc202001649-sup-00001-misc_information.pdf']""]"
1387,COc1ccc(S(=O)(=O)[NH:14]c2ccccc2)cc1,O,0,0,8.66,[8.66],"[""['hunt_et_al']""]"
1388,c1ccc(C(CC[NH+:20]2CCOCC2)c2ccccc2)cc1,O,0,0,7.2,[7.2],"[""['hunt_et_al']""]"
1389,c1cc([NH3+:13])ccc1[C@@]12CCC[C@@H]1C2,O,0,0,4.98,[4.98],"[""['hunt_et_al']""]"
1390,CCOC(=O)c1cc([N+](=O)[O-])cc([NH3+:10])c1,O,0,0,0.98,[0.98],"[""['hunt_et_al']""]"
1391,c1ccc2nc([OH:11])cnc2c1,O,0,0,9.14,[9.14],"[""['hunt_et_al']""]"
1392,C[C@@H]1CC[NH2+:8][C@H](C)C1,O,0,0,10.73,[10.73],"[""['hunt_et_al']""]"
1393,CC(C)[NH2+:12]C[C@H](O)c1ccccc1Br,O,0,0,9.4,[9.4],"[""['hunt_et_al']""]"
1394,CC(C)(C(=O)[O-])c1ccc([C@@H](O)CCC[NH+:33]2CCC(C(O)(c3ccccc3)c3ccccc3)CC2)cc1,O,0,0,7.53,[7.53],"[""['hunt_et_al']""]"
1395,Clc1cc([OH:7])c(Cl)c(Cl)c1Cl,O,0,0,6.35,[6.35],"[""['hunt_et_al']""]"
1396,CCNc1nccc[nH+:7]1,O,0,0,3.89,[3.89],"[""['hunt_et_al']""]"
1397,O=S(=O)(c1cc(S(=O)(=O)C(F)(F)F)c(O)c(S(=O)(=O)C(F)(F)F)c1)C(F)(F)F,C(CCl)Cl,71571-37-4,"2,4,6-tris(trifluoromethylsulfonyl)phenol",38.4,"[38.4, 38.4]","[""['leito_acids']"", ""['Ejoc202001649-sup-00001-misc_information.pdf']""]"
1398,Oc1cccc([OH:7])c1,O,0,0,9.15,[9.15],"[""['hunt_et_al']""]"
1399,O=C(c1ccccc1)[C@@H](C[NH+:20]1CCOCC1)c1ccccc1,O,0,0,6.17,[6.17],"[""['hunt_et_al']""]"
1400,CC1=NN(C(=O)CCS)[C@H](C(=O)[OH:12])S1,O,0,0,2.4,[2.4],"[""['hunt_et_al']""]"
1401,c1cnc[nH+]c1,C1CCOC1,-,pyrimidin-1-ium,2.4,[2.4],"[""['Bases_pKa_values_MeCN_DMSO_THF_Water.pdf']""]"
1402,CC[NH2+:11]C[C@H](O)c1cccc(O)c1,O,0,0,8.983,[8.983],"[""['hunt_et_al']""]"
1403,O=C(O)COCC[NH+:22]1CCN([C@H](c2ccccc2)c2ccc(Cl)cc2)CC1,O,0,0,7.95,[7.95],"[""['hunt_et_al']""]"
1404,C[NH+:6](C)CCCO,O,0,0,9.3,[9.3],"[""['hunt_et_al']""]"
1405,CC(C)[NH2+:12]C[C@H](O)c1cccc(F)c1,O,0,0,9.48,[9.48],"[""['hunt_et_al']""]"
1406,O=C(O)C(=O)O,CC#N,144-62-7,oxalic acid,14.5,[14.5],"[""['MeCN_Acids_COSMO-RS_2008_Table.pdf']""]"
1407,N#CC(C#N)=C(N)C(C#N)C#N,C(CCl)Cl,98555-43-2,"2-aminoprop-1-ene-1,1,3,3-tetracarbonitrile",38.2,[38.2],"[""['leito_acids']""]"
1408,Oc1nc(O)nc([OH:7])n1,O,0,0,6.78,[6.78],"[""['hunt_et_al']""]"
1409,CCC[NH2+:15][C@@H](C)C(=O)Nc1ccccc1C,O,0,0,7.9,[7.9],"[""['hunt_et_al']""]"
1410,O=C1C([O-])=C(Oc2ccccc2)C(=O)C([OH:21])=C1Oc1ccccc1,O,0,0,3.0,[3.0],"[""['hunt_et_al']""]"
1411,C[C@H](CS)C(=O)N1CCC[C@H]1C(=O)[OH:13],O,0,0,3.45,[3.45],"[""['hunt_et_al']""]"
1412,O=c1cc(-c2cccc([NH3+:16])c2)oc2ccccc12,O,0,0,3.56,[3.56],"[""['hunt_et_al']""]"
1413,CC(C)C[NH3+],O,58471-06-0,2-methylpropylazanium,10.42,[10.42],"[""['Bases_pKa_values_MeCN_DMSO_THF_Water.pdf']""]"
1414,FC(F)(F)c1ccc([OH:8])cc1,O,0,0,8.675,[8.675],"[""['hunt_et_al']""]"
1415,CC1=[NH+:7]CC(C)(C)S1,O,0,0,5.67,[5.67],"[""['hunt_et_al']""]"
1416,Cc1cc(C)c([NH3+:10])c(C)c1,O,0,0,4.38,[4.38],"[""['hunt_et_al']""]"
1417,Cc1cccc(C)c1C(c1ccccc1)=[NH2+:16],O,0,0,6.29,[6.29],"[""['hunt_et_al']""]"
1418,Cc1c([N+](=O)[O-])cc([N+](=O)[O-])cc1[N+](=O)[O-],CC#N,118-96-7,"2-methyl-1,3,5-trinitrobenzene",23.2,[23.2],"[""['MeCN_Acids_COSMO-RS_2008_Table.pdf']""]"
1419,C[NH2+:11]CC[C@H](O)c1ccccc1,O,0,0,9.565,[9.565],"[""['hunt_et_al']""]"
1420,Nc1[nH]c2cccc3cccc(c32)[nH+:12]1,O,0,0,7.6,[7.6],"[""['hunt_et_al']""]"
1421,CC(C)N1CC[NH+:31](Cc2cnc(-c3cc(-c4cccc5[nH]ccc45)cc4[nH]ncc34)o2)CC1,O,0,0,8.26,[8.26],"[""['hunt_et_al']""]"
1422,C[NH+:13](C)[C@@H]1CCc2ccccc2C1,O,0,0,9.5,[9.5],"[""['hunt_et_al']""]"
1423,CCCCCCC[N@@H+:22](CC[N+]1(C)CCCCC1)c1ccccc1,O,0,0,3.21,[3.21],"[""['hunt_et_al']""]"
1424,CS(=O)(=O)c1ccc([NH3+:8])cc1Cl,O,0,0,0.47,[0.47],"[""['hunt_et_al']""]"
1425,CSc1c(Cl)cc([NH3+:8])cc1Cl,O,0,0,1.67,[1.67],"[""['hunt_et_al']""]"
1426,CC(C)(C(=O)[O-])C(=O)[OH:8],O,0,0,6.06,[6.06],"[""['hunt_et_al']""]"
1427,Cc1ccc([NH:14]S(=O)(=O)c2ccccc2)cc1,O,0,0,8.64,[8.64],"[""['hunt_et_al']""]"
1428,CCC(=O)C(CC[NH+:21](C)C)(c1ccccc1)c1ccccc1,O,0,0,9.18,[9.18],"[""['hunt_et_al']""]"
1429,c1cc[nH+:14]c(CSc2nc3ccccc3[nH]2)c1,O,0,0,4.4,[4.4],"[""['hunt_et_al']""]"
1430,C=C[C@H]1C[N@@H+:22]2CC[C@H]1C[C@@H]2[C@@H](O)c1ccnc2ccc(OC)cc12,O,0,0,8.05,[8.05],"[""['hunt_et_al']""]"
1431,Ic1cccc([NH3+:7])c1,O,0,0,3.61,[3.61],"[""['hunt_et_al']""]"
1432,c1ccc(CC[NH+:14]2CCCCC2)nc1,O,0,0,9.29,[9.29],"[""['hunt_et_al']""]"
1433,Oc1cc2c(cc1O)C[C@H]([NH3+:11])CC2,O,0,0,10.5,[10.5],"[""['hunt_et_al']""]"
1434,O=C1c2cccc([OH:17])c2C(=O)c2cccc(O)c21,O,0,0,9.49,[9.49],"[""['hunt_et_al']""]"
1435,N#Cc1cccc(S(N)(=O)=O)c1,CC#N,3118-68-1,3-cyanobenzenesulfonamide,23.23,[23.23],"[""['MeCN_Acids_COSMO-RS_2008_Table.pdf']""]"
1436,CCOP(=O)(OCC)SCC[NH+:9](C)C,O,0,0,7.73,[7.73],"[""['hunt_et_al']""]"
1437,O=C1C[C@H]([SH:8])C(=O)[N-]1,O,0,0,6.7,[6.7],"[""['hunt_et_al']""]"
1438,CN(c1cccc[nH+:8]1)S(C)(=O)=O,O,0,0,1.73,[1.73],"[""['hunt_et_al']""]"
1439,O=C1NC(=O)C([N+](=O)[O-])C(=O)N1,CS(=O)C,480-68-2,"5-nitro-1,3-diazinane-2,4,6-trione",0.8,[0.8],"[""['Ejoc202001649-sup-00001-misc_information.pdf']""]"
1440,O=S(=O)(c1ccccc1)[NH:13]c1ccc(Cl)cc1,O,0,0,7.93,[7.93],"[""['hunt_et_al']""]"
1441,O=C(O)CCCCC(=O)[OH:9],O,0,0,4.43,[4.43],"[""['hunt_et_al']""]"
1442,C[N@@H+:12]1CCC[C@H]1c1cccnc1,O,0,0,8.1,[8.1],"[""['hunt_et_al']""]"
1443,O=[N+]([O-])c1ccc([SH:10])cc1,O,0,0,4.6,[4.6],"[""['hunt_et_al']""]"
1444,O=C(NC[C@@H](O)C[NH+]1CCC(Oc2ccc(Cl)c(Cl)c2)CC1)c1c[nH:25]c(=O)c2ccccc12,O,0,0,10.9,[10.9],"[""['hunt_et_al']""]"
1445,CC(C)[NH2+:12]C[C@H](O)c1ccc(F)cc1,O,0,0,9.35,[9.35],"[""['hunt_et_al']""]"
1446,COc1cccc(C[NH3+:9])c1O,O,0,0,10.52,[10.52],"[""['hunt_et_al']""]"
1447,O=C(CCc1ccc(Cl)cc1)[OH:11],O,0,0,4.61,[4.61],"[""['hunt_et_al']""]"
1448,C#CC[NH+:8](CC)CC,O,0,0,7.97,[7.97],"[""['hunt_et_al']""]"
1449,CCCC[NH2+]CCCC,O,-,dibutylazanium,11.25,[11.25],"[""['Bases_pKa_values_MeCN_DMSO_THF_Water.pdf']""]"
1450,CCCC(=O)OCC[NH+:9](C)C,O,0,0,8.31,[8.31],"[""['hunt_et_al']""]"
1451,[NH3+]c1ccc(Cl)cc1[N+](=O)[O-],CC#N,,(4-chloro-2-nitrophenyl)azanium,3.8,[3.8],"[""['pKa_values_of_nitrogen_heterocycles.pdf']""]"
1452,CCC[NH+](CC)CC,CS(=O)C,-,diethyl(propyl)azanium,9.0,[9.0],"[""['Bases_pKa_values_MeCN_DMSO_THF_Water.pdf']""]"
1453,CN(C)c1c(F)c(F)c(Nc2c(F)c(F)c(F)c(F)c2F)c(F)c1F,CS(=O)C,80588-34-7,"2,3,5,6-tetrafluoro-N1,N1-dimethyl-N4-(perfluorophenyl)benzene-1,4-diamine",12.7,[12.7],"[""['Ejoc202001649-sup-00001-misc_information.pdf']""]"
1454,NCC[NH3+],C1CCOC1,-,2-aminoethylazanium,13.6,[13.6],"[""['Bases_pKa_values_MeCN_DMSO_THF_Water.pdf']""]"
1455,COC(=O)c1nc2c(N[C@H](C)CO)nc(SCc3cccc(F)c3F)nc2[nH:22]c1=O,O,0,0,6.6,[6.6],"[""['hunt_et_al']""]"
1456,CC[NH+:7](CC)CCO,O,0,0,9.87,[9.87],"[""['hunt_et_al']""]"
1457,c1cncc(CC[NH+:13]2CCCC2)c1,O,0,0,9.28,[9.28],"[""['hunt_et_al']""]"
1458,CCCO[P@@](C)(=O)OCC[NH+:9](C)C,O,0,0,8.24,[8.24],"[""['hunt_et_al']""]"
1459,CC1(C)S[C@@H]2[C@H](NC(=O)[C@H](NC(=O)N3CCNC3=O)c3ccccc3)C(=O)N2[C@H]1C(=O)[OH:31],O,0,0,2.41,[2.41],"[""['hunt_et_al']""]"
1460,N#CC(C#N)c1cccc(C(F)(F)F)c1,CC#N,99726-60-0,2-[3-(trifluoromethyl)phenyl]propanedinitrile,14.715,"[14.72, 14.72, 14.7, 14.72]","[""['MeCN_Acids_COSMO-RS_2008_Table.pdf', 'a_unified_view_to_bronsted_acidity_scales.pdf', 'Ejoc202001649-sup-00001-misc_information.pdf', 'leito_acids']""]"
1461,C[C@H](Cc1ccc(O)cc1)[NH3+:10],O,0,0,9.7,[9.7],"[""['hunt_et_al']""]"
1462,O=c1c(F)c(F)[nH]c(F)c1F,CC#N,2693-66-5,"2,3,5,6-tetrafluoro-1H-pyridin-4-one",15.395,"[15.4, 15.39, 15.39, 15.4]","[""['MeCN_Acids_COSMO-RS_2008_Table.pdf', 'pKa_values_of_acids_in_acetonitrile.pdf', 'Ejoc202001649-sup-00001-misc_information.pdf', 'leito_acids']""]"
1463,CO[C@@]1(NC(=O)CSCC#N)C(=O)N2C(C(=O)[OH:26])=C(CSc3nnnn3C)CS[C@@H]21,O,0,0,3.37,[3.37],"[""['hunt_et_al']""]"
1464,c1ccc(C[NH+](Cc2ccccc2)Cc2ccccc2)cc1,CC#N,-,tribenzylazanium,12.9,[12.9],"[""['Bases_pKa_values_MeCN_DMSO_THF_Water.pdf']""]"
1465,O=C([O-])COCC[NH+:22]1CCN([C@H](c2ccccc2)c2ccc(Cl)cc2)CC1,O,0,0,7.95,[7.95],"[""['hunt_et_al']""]"
1466,CCCC(=O)SCC[NH+:9](C)C,O,0,0,8.32,[8.32],"[""['hunt_et_al']""]"
1467,CCOC(=O)C(C#N)c1c(F)c(F)c(C(F)(F)F)c(F)c1F,CC#N,32251-53-9,"ethyl 2-cyano-2-[2,3,5,6-tetrafluoro-4-(trifluoromethyl)phenyl]acetate",16.0775,"[16.08, 16.08, 16.07, 16.08]","[""['MeCN_Acids_COSMO-RS_2008_Table.pdf', 'a_unified_view_to_bronsted_acidity_scales.pdf', 'Ejoc202001649-sup-00001-misc_information.pdf', 'leito_acids']""]"
1468,C[C@H]([C@@H](O)c1ccc(O)c(O)c1)[NH3+:10],O,0,0,8.75,[8.75],"[""['hunt_et_al']""]"
1469,CCC[NH+:6](C)C,O,0,0,10.2,[10.2],"[""['hunt_et_al']""]"
1470,C[Si](C)(C)CCC[NH3+:7],O,0,0,10.73,[10.73],"[""['hunt_et_al']""]"
1471,O=S(=O)(Cc1ccccc1)C(F)(F)F,CC#N,-,trifluoromethylsulfonylmethylbenzene,27.19,"[27.19, 27.19]","[""['pKa_values_of_acids_in_acetonitrile.pdf', 'Ejoc202001649-sup-00001-misc_information.pdf']""]"
1472,c1cc([OH:11])c2cncnc2c1,O,0,0,7.41,[7.41],"[""['hunt_et_al']""]"
1473,Cc1cc(N)nc(Nc2ccc(Cl)cc2)[nH+:12]1,O,0,0,6.6,[6.6],"[""['hunt_et_al']""]"
1474,C1C[NH+]2CCC1CC2,O,-,1-azoniabicyclo[2.2.2]octane,11.0,[11.0],"[""['Bases_pKa_values_MeCN_DMSO_THF_Water.pdf']""]"
1475,O=[N+]([O-])c1cc(F)ccc1[NH3+:7],O,0,0,-0.44,[-0.44],"[""['hunt_et_al']""]"
1476,O[C@@H](C[NH3+:9])c1ccc(Cl)c(Cl)c1,O,0,0,8.78,[8.78],"[""['hunt_et_al']""]"
1477,O=C(NS(=O)(=O)N1CCC([NH+:24]2CCC(Oc3ccc(Cl)c(Cl)c3)CC2)CC1)c1ccccc1,O,0,0,8.1,[8.1],"[""['hunt_et_al']""]"
1478,COc1ccc2c(c1)C(=O)N(CCc1ccc(S(=O)(=O)[NH:30]C(=O)NC3CCCCC3)cc1)C(=O)C2(C)C,O,0,0,5.0,[5.0],"[""['hunt_et_al']""]"
1479,Cc1ccc([NH+:12]2CCCC2)cc1,O,0,0,4.7,[4.7],"[""['hunt_et_al']""]"
1480,CCCCOC(=O)c1ccc([NH3+:12])cc1,O,0,0,2.472,[2.472],"[""['hunt_et_al']""]"
1481,Nc1c2ccccc2cc[nH+:10]1,O,0,0,7.59,[7.59],"[""['hunt_et_al']""]"
1482,c1ccc2[nH+]ccnc2c1,CC#N,,quinoxalin-1-ium,7.4,[7.4],"[""['pKa_values_of_nitrogen_heterocycles.pdf']""]"
1483,Cc1cc(C[N@@H+](CC(=O)Nc2ccc(Cl)cc2Cl)C2CCCCC2)ccc1OCC(=O)[OH:29],O,0,0,2.9,[2.9],"[""['hunt_et_al']""]"
1484,c1cc([OH:11])c2ccnnc2c1,O,0,0,7.42,[7.42],"[""['hunt_et_al']""]"
1485,O=[N+]([O-])c1cccc2ccc([NH3+:11])cc12,O,0,0,2.73,[2.73],"[""['hunt_et_al']""]"
1486,N#CC(c1c(F)c(F)c2c(F)c(F)c(F)c(F)c2c1F)c1c(F)c(F)c2c(F)c(F)c(F)c(F)c2c1F,C(CCl)Cl,62325-38-6,"2,2-bis(1,3,4,5,6,7,8-heptafluoronaphthalen-2-yl)acetonitrile",53.26666666666667,"[53.0, 53.4, 53.4]","[""['pKa_values_of_acids_and_bases_in_MeCN_DCE_DMSO_H2O_THF_C7_DME.pdf', 'Ejoc202001649-sup-00001-misc_information.pdf', 'leito_acids']""]"
1487,O=[N+]([O-])c1cccc([N+](=O)[O-])c1O,CC#N,573-56-8,"2,6-dinitrophenol",16.74,"[16.74, 16.74]","[""['pKa_values_of_acids_in_acetonitrile.pdf', 'Ejoc202001649-sup-00001-misc_information.pdf']""]"
1488,COC(=O)c1ccccc1[NH2+:10]C,O,0,0,3.53,[3.53],"[""['hunt_et_al']""]"
1489,Ic1cc([NH3+:11])c2ccccc2c1,O,0,0,2.82,[2.82],"[""['hunt_et_al']""]"
1490,C[NH+](C)C,CS(=O)C,,trimethylazanium,8.4,[8.4],"[""['Bases_pKa_values_MeCN_DMSO_THF_Water.pdf']""]"
1491,Cc1ccc(C2=CCC[NH2+:12]2)cc1,O,0,0,7.55,[7.55],"[""['hunt_et_al']""]"
1492,C1CCC(=[NH2+:7])CC1,O,0,0,9.15,[9.15],"[""['hunt_et_al']""]"
1493,O=C(O)CCCCCCCC(=O)[OH:12],O,0,0,3.49,[3.49],"[""['hunt_et_al']""]"
1494,CC(C)C1CC[NH2+:9]CC1,O,0,0,10.85,[10.85],"[""['hunt_et_al']""]"
1495,C[C@@H](Cc1ccc(C(C)(C)C)cc1)C[NH+:20]1CCCCC1,O,0,0,10.13,[10.13],"[""['hunt_et_al']""]"
1496,CN1CC[NH+](C)CC1,C1CCOC1,-,"1,4-dimethylpiperazin-1-ium",12.4,[12.4],"[""['Bases_pKa_values_MeCN_DMSO_THF_Water.pdf']""]"
1497,CCC(=O)[OH:5],O,0,0,4.874,[4.874],"[""['hunt_et_al']""]"
1498,Clc1ccccc1C[NH3+:8],O,0,0,8.8,[8.8],"[""['hunt_et_al']""]"
1499,COc1ccc([NH3+:8])cc1,O,0,0,5.31,[5.31],"[""['hunt_et_al']""]"
1500,CSc1cc(Cl)c([NH3+:8])c(Cl)c1,O,0,0,0.35,[0.35],"[""['hunt_et_al']""]"
1501,c1ccc2c([OH:11])cncc2c1,O,0,0,8.7,[8.7],"[""['hunt_et_al']""]"
1502,O=C(COc1ccc(Cl)cc1)N[OH:11],O,0,0,8.75,[8.75],"[""['hunt_et_al']""]"
1503,CCCCC1=CCC[N@@H+:10]1C,O,0,0,11.84,[11.84],"[""['hunt_et_al']""]"
1504,O=C(CO)[OH:4],O,0,0,3.83,[3.83],"[""['hunt_et_al']""]"
1505,C[C@@H](C(=O)O)[NH3+:4],O,0,0,10.0,[10.0],"[""['hunt_et_al']""]"
1506,C[NH+:20](C)CC/C=C1\c2ccccc2COc2ccccc21,O,0,0,8.0,[8.0],"[""['hunt_et_al']""]"
1507,Fc1nc(F)c(F)c(Nc2ccccc2)c1F,CS(=O)C,39077-43-5,"2,3,5,6-tetrafluoro-N-phenylpyridin-4-amine",8.3,[8.3],"[""['Ejoc202001649-sup-00001-misc_information.pdf']""]"
1508,CN(C)CC[NH+](C)C,CC#N,-,2-(dimethylamino)ethyl-dimethylazanium,18.69,[18.69],"[""['Bases_pKa_values_MeCN_DMSO_THF_Water.pdf']""]"
1509,O=[N+]([O-])c1cc(-c2ccccc2)ccc1[OH:16],O,0,0,6.73,[6.73],"[""['hunt_et_al']""]"
1510,c1ccc2[nH+]c(-c3cscn3)[nH]c2c1,O,,"4-(1H-benzimidazol-3-ium-2-yl)-1,3-thiazole",4.64,[4.64],"[""['pKa_values_of_nitrogen_heterocycles.pdf']""]"
1511,CC(C)(C)c1cc(C(C)(C)C)cc([NH3+:15])c1,O,0,0,4.97,[4.97],"[""['hunt_et_al']""]"
1512,C[C@@H](c1ccc(Cl)cc1)[NH3+:9],O,0,0,9.1,[9.1],"[""['hunt_et_al']""]"
1513,N[NH3+],O,18500-32-8,aminoazanium,7.96,[7.96],"[""['Bases_pKa_values_MeCN_DMSO_THF_Water.pdf']""]"
1514,ClC(Cl)C[NH3+:3],O,0,0,7.25,[7.25],"[""['hunt_et_al']""]"