,Solute SMILES,Solvent SMILES,Solute CAS,Solute IUPAC,pKa (avg),pKa (all),Source (all)
2341,O=[N+]([O-])c1cc([N+](=O)[O-])c(O)c([N+](=O)[O-])c1,C(CCl)Cl,88-89-1,"2,4,6-trinitrophenol",44.86666666666667,"[44.6, 45.0, 45.0]","['[""[\'pKa_values_of_acids_and_bases_in_MeCN_DCE_DMSO_H2O_THF_C7_DME.pdf\', \'Ejoc202001649-sup-00001-misc_information.pdf\', \'leito_acids\']""]']"
2342,[NH3+]c1cc(Cl)cc(Cl)c1,O,0,0,2.371,[2.371],"['[""[\'hunt_et_al\']""]']"
2343,COc1ccc([C@@H](O)C[NH3+])cc1OC,O,0,0,9.18,[9.18],"['[""[\'hunt_et_al\']""]']"
2344,N#CC(c1c(F)c(F)nc(F)c1F)c1c(F)c(F)nc(F)c1F,CC#N,64934-72-1,"2,2-bis(2,3,5,6-tetrafluoropyridin-4-yl)acetonitrile",13.466666666666669,"[13.47, 13.47, 13.46]","['[""[\'a_unified_view_to_bronsted_acidity_scales.pdf\', \'pKa_values_of_acids_in_acetonitrile.pdf\', \'leito_acids\']""]']"
2345,Cc1cccc(C[NH+](CCO)CCO)c1,O,0,0,7.0,[7.0],"['[""[\'hunt_et_al\']""]']"
2346,CCC[C@H](C)C(=O)O,O,0,0,4.782,[4.782],"['[""[\'hunt_et_al\']""]']"
2347,C=C1CC[N@H+](C)[C@@H](C)C1,O,0,0,9.25,[9.25],"['[""[\'hunt_et_al\']""]']"
2348,CCCC[NH+](CCCC)CCCC,O,0,0,10.41,"[9.93, 10.89]","['[""[\'hunt_et_al\']""]', '[""[\'Bases_pKa_values_MeCN_DMSO_THF_Water.pdf\']""]']"
2349,c1ccc2nc[nH+]cc2c1,O,,quinazolin-3-ium,1.95,[1.95],"['[""[\'pKa_values_of_nitrogen_heterocycles.pdf\']""]']"
2350,[NH3+]c1ccc(SC(F)(F)F)cc1,O,0,0,2.78,[2.78],"['[""[\'hunt_et_al\']""]']"
2351,COC(=O)c1cc[nH+]c(N)c1,O,0,0,5.21,[5.21],"['[""[\'hunt_et_al\']""]']"
2352,O=[N+]([O-])c1cc(Cl)c(O)c([N+](=O)[O-])c1,CC#N,946-31-6,"2-chloro-4,6-dinitrophenol",14.23,"[14.23, 14.23]","['[""[\'pKa_values_of_acids_in_acetonitrile.pdf\', \'Ejoc202001649-sup-00001-misc_information.pdf\']""]']"
2353,O=C1c2cccc(O)c2C(=O)c2c(O)cccc21,O,0,0,8.3,[8.3],"['[""[\'hunt_et_al\']""]']"
2354,CCCCCCCC[NH3+],O,0,0,10.65,[10.65],"['[""[\'hunt_et_al\']""]']"
2355,CC[NH3+],O,0,0,10.665,"[10.7, 10.63]","['[""[\'hunt_et_al\']""]', '[""[\'Bases_pKa_values_MeCN_DMSO_THF_Water.pdf\']""]']"
2356,O=C(O)Cc1ccccc1Cl,O,0,0,4.07,[4.07],"['[""[\'hunt_et_al\']""]']"
2357,CC(C)c1ccccc1O,O,0,0,10.47,[10.47],"['[""[\'hunt_et_al\']""]']"
2358,O=[N+]([O-])C1=NC=C[NH2+]1,O,,2-nitro-1H-imidazol-1-ium,-0.81,[-0.81],"['[""[\'pKa_values_of_nitrogen_heterocycles.pdf\']""]']"
2359,O=C(O)c1ccc(Br)cc1,CC#N,586-76-5,4-bromobenzoic acid,20.3,[20.3],"['[""[\'MeCN_Acids_COSMO-RS_2008_Table.pdf\']""]']"
2360,O=[S@@](Cc1ccccn1)c1nc2ccccc2[nH]1,O,0,0,8.8,[8.8],"['[""[\'hunt_et_al\']""]']"
2361,c1ccc2c(c1)ccc1[nH+]cccc12,CC#N,,benzo[f]quinolin-4-ium,11.96,[11.96],"['[""[\'pKa_values_of_nitrogen_heterocycles.pdf\']""]']"
2362,CC(C)(C)[P@@H](=O)O,O,0,0,4.24,[4.24],"['[""[\'hunt_et_al\']""]']"
2363,CCCCNC(=O)NS(=O)(=O)c1ccc(C)cc1,O,0,0,5.3,[5.3],"['[""[\'hunt_et_al\']""]']"
2364,C[N+](C)(C)c1ccc(O)cc1,O,0,0,8.35,[8.35],"['[""[\'hunt_et_al\']""]']"
2365,CC[NH+](CC)[C@@H](C)C=C(c1cccs1)c1cccs1,O,0,0,8.85,[8.85],"['[""[\'hunt_et_al\']""]']"
2366,c1ccc([NH2+]C2CCCCC2)cc1,O,0,0,5.6,[5.6],"['[""[\'hunt_et_al\']""]']"
2367,CC(C)[NH2+]CCc1ccc(O)cc1,O,0,0,9.49,[9.49],"['[""[\'hunt_et_al\']""]']"
2368,Cc1[nH+]c2c(OCc3ccccc3)cccn2c1CC#N,O,0,0,5.6,[5.6],"['[""[\'hunt_et_al\']""]']"
2369,CC[NH+](CC)CCNC(=O)c1ccc(N)cc1,O,0,0,9.29,[9.29],"['[""[\'hunt_et_al\']""]']"
2370,COC(=O)C1=CCC[N@H+](C)C1,O,0,0,7.64,[7.64],"['[""[\'hunt_et_al\']""]']"
2371,CC(=O)c1ccc(O)cc1,O,0,0,8.05,[8.05],"['[""[\'hunt_et_al\']""]']"
2372,c1ccc2[nH][nH+]cc2c1,CC#N,-,1H-indazol-2-ium,7.61,"[7.61, 7.61]","['[""[\'pKa_values_of_nitrogen_heterocycles.pdf\', \'Bases_pKa_values_MeCN_DMSO_THF_Water.pdf\']""]']"
2373,CC[NH+](CC)CC,O,17440-81-2,triethylazanium,10.75,"[10.7, 10.65, 10.9]","['[""[\'pKa_values_of_acids_and_bases_in_MeCN_DCE_DMSO_H2O_THF_C7_DME.pdf\', \'Bases_pKa_values_MeCN_DMSO_THF_Water.pdf\']""]', '[""[\'hunt_et_al\']""]']"
2374,C[NH+](C)c1cccc([N+](C)(C)C)c1,O,0,0,2.6,[2.6],"['[""[\'hunt_et_al\']""]']"
2375,CC[C@H]1CSC(C)=[NH+]1,O,0,0,5.301,[5.301],"['[""[\'hunt_et_al\']""]']"
2376,Oc1cnc2ccccc2c1,O,0,0,8.08,[8.08],"['[""[\'hunt_et_al\']""]']"
2377,Cc1cc(C)nc(O)n1,O,0,0,10.5,[10.5],"['[""[\'hunt_et_al\']""]']"
2378,Cc1cc(Br)cc(C)c1[NH3+],O,0,0,3.54,[3.54],"['[""[\'hunt_et_al\']""]']"
2379,Nc1ccc[nH+]c1N,CC#N,,"pyridin-1-ium-2,3-diamine",15.24,[15.24],"['[""[\'pKa_values_of_nitrogen_heterocycles.pdf\']""]']"
2380,c1ccc([C@H]2CCCC[NH2+]2)nc1,O,0,0,9.1,[9.1],"['[""[\'hunt_et_al\']""]']"
2381,C[C@H](O)C(=O)O,O,0,0,3.861,[3.861],"['[""[\'hunt_et_al\']""]']"
2382,O=S(=O)(Nc1ccc(Cl)cc1)c1ccccc1,O,0,0,7.93,[7.93],"['[""[\'hunt_et_al\']""]']"
2383,Oc1cnc2ccccc2n1,O,0,0,9.14,[9.14],"['[""[\'hunt_et_al\']""]']"
2384,CC(C)[NH2+]C[C@H](O)c1ccc([N-]S(C)(=O)=O)cc1,O,0,0,9.3,[9.3],"['[""[\'hunt_et_al\']""]']"
2385,[NH3+]c1c(Cl)c(Cl)c(Cl)c(Cl)c1Cl,CC#N,,"(2,3,4,5,6-pentachlorophenyl)azanium",2.35,[2.35],"['[""[\'pKa_values_of_nitrogen_heterocycles.pdf\']""]']"
2386,CC[C@@H]([NH3+])c1ccccc1,O,0,0,9.3,[9.3],"['[""[\'hunt_et_al\']""]']"
2387,Oc1c(Cl)cc(Cl)c2cccnc12,O,0,0,7.62,[7.62],"['[""[\'hunt_et_al\']""]']"
2388,C[N@@H+]1CCC[C@H]1c1ccccc1,O,0,0,8.8,[8.8],"['[""[\'hunt_et_al\']""]']"
2389,Oc1cc(Cl)ccc1Cl,O,0,0,7.51,[7.51],"['[""[\'hunt_et_al\']""]']"
2390,O=C(CC[NH+]1CCCCC1)C(c1ccccc1)c1ccccc1,O,0,0,9.45,[9.45],"['[""[\'hunt_et_al\']""]']"
2391,O=[N+]([O-])c1cccc2cc[nH]c12,CC#N,6960-42-5,7-nitro-1H-indole,29.99,"[29.99, 29.99]","['[""[\'pKa_values_of_acids_in_acetonitrile.pdf\', \'Ejoc202001649-sup-00001-misc_information.pdf\']""]']"
2392,[NH3+]CCc1c[nH]cn1,O,0,0,9.7,[9.7],"['[""[\'hunt_et_al\']""]']"
2393,CCOC(=O)c1ccc[nH+]c1N,O,0,0,4.73,[4.73],"['[""[\'hunt_et_al\']""]']"
2394,C[NH+](C)c1cccc(C(F)(F)F)c1,O,0,0,3.27,[3.27],"['[""[\'hunt_et_al\']""]']"
2395,O=[N+]([O-])c1ccc(S(=O)(=O)NS(=O)(=O)c2c(F)c(F)c(F)c(F)c2F)cc1,CC#N,1171188-93-4,"2,3,4,5,6-pentafluoro-N-((4-nitrophenyl)sulfonyl)benzenesulfonamide",6.599999999999999,"[6.6, 6.6, 6.6]","['[""[\'DCE_2011_pKa_Table_MeCN.pdf\', \'pKa_values_of_acids_in_acetonitrile.pdf\', \'leito_acids\']""]']"
2396,Nc1[nH+]ccc2ccccc12,O,0,0,7.59,[7.59],"['[""[\'hunt_et_al\']""]']"
2397,CC(C)[NH2+]CCc1ccccc1,O,0,0,10.02,[10.02],"['[""[\'hunt_et_al\']""]']"
2398,[NH3+]c1ccc(Br)cc1,CC#N,,(4-bromophenyl)azanium,9.43,[9.43],"['[""[\'pKa_values_of_nitrogen_heterocycles.pdf\']""]']"
2399,[NH3+][C@@H]1CCc2c(ccc(O)c2O)C1,O,0,0,9.433333333333334,"[8.9, 8.9, 10.5]","['[""[\'hunt_et_al\']""]', '[""[\'hunt_et_al\']""]', '[""[\'hunt_et_al\']""]']"
2400,Cc1cccc(C)c1[NH+](C)C,O,0,0,4.3,[4.3],"['[""[\'hunt_et_al\']""]']"
2401,C[Si](C)(C)C[NH2+]C[Si](C)(C)C,O,0,0,11.4,[11.4],"['[""[\'hunt_et_al\']""]']"
2402,O=C(NO)c1cccc([N+](=O)[O-])c1,O,0,0,8.07,[8.07],"['[""[\'hunt_et_al\']""]']"
2403,CC(C)(C)c1cc(C(C)(C)C)c(O)c(C(C)(C)C)c1,O,0,0,12.19,[12.19],"['[""[\'hunt_et_al\']""]']"
2404,Oc1ccc(-c2ccccc2)cc1,O,0,0,9.55,[9.55],"['[""[\'hunt_et_al\']""]']"
2405,[NH3+]Cc1ccccc1,C1CCOC1,-,benzylazanium,12.1,[12.1],"['[""[\'Bases_pKa_values_MeCN_DMSO_THF_Water.pdf\']""]']"
2406,Cc1c(F)c(F)c([C@@H](C#N)c2c(F)c(F)c(F)c(F)c2F)c(F)c1F,CC#N,52345-34-3,"(R)-2-(perfluorophenyl)-2-(2,3,5,6-tetrafluoro-4-methylphenyl)acetonitrile",21.94,"[21.94, 21.94]","['[""[\'MeCN_Acids_COSMO-RS_2008_Table.pdf\', \'Ejoc202001649-sup-00001-misc_information.pdf\']""]']"
2407,COC(=O)CC(C(=O)O)(c1ccccc1)c1ccccc1,O,0,0,3.899,[3.899],"['[""[\'hunt_et_al\']""]']"
2408,CCC[N@H+](CC)c1ccccc1,O,0,0,6.39,[6.39],"['[""[\'hunt_et_al\']""]']"
2409,O=C(NCCS)NCCS,O,0,0,9.26,[9.26],"['[""[\'hunt_et_al\']""]']"
2410,CC(C)[NH3+],O,,propan-2-ylazanium,10.64,"[10.65, 10.63]","['[""[\'Bases_pKa_values_MeCN_DMSO_THF_Water.pdf\']""]', '[""[\'hunt_et_al\']""]']"
2411,C[C@H]([NH3+])c1ccc(Cl)cc1,O,0,0,9.1,[9.1],"['[""[\'hunt_et_al\']""]']"
2412,CN(C)[P+](N)(N(C)C)N(C)C,CC#N,-,amino-tris(dimethylamino)phosphanium,25.85,[25.85],"['[""[\'Bases_pKa_values_MeCN_DMSO_THF_Water.pdf\']""]']"
2413,C=CCc1c(C)nc(NC)[nH+]c1C,O,0,0,5.31,[5.31],"['[""[\'hunt_et_al\']""]']"
2414,O=C(NS(=O)(=O)c1ccc(Cl)cc1)N1CCC([NH+]2CCC(Oc3ccc(Cl)c(Cl)c3)CC2)CC1,O,0,0,2.5,[2.5],"['[""[\'hunt_et_al\']""]']"
2415,CC1=N[C@](c2cccc(-c3cncc(Cl)c3)c2)(C2CC2)[NH+]=C1N,O,0,0,6.04,[6.04],"['[""[\'hunt_et_al\']""]']"
2416,NS(=O)(=O)c1c(F)c(F)c(F)c(F)c1F,O,778-36-9,"2,3,4,5,6-pentafluorobenzenesulfonamide",8.3,[8.3],"['[""[\'Ejoc202001649-sup-00001-misc_information.pdf\']""]']"
2417,O=C(O)c1ccc(O)cc1,O,0,0,4.54,[4.54],"['[""[\'hunt_et_al\']""]']"
2418,CCOc1ccc(C[NH+](CCO)CCO)cc1,O,0,0,7.6,[7.6],"['[""[\'hunt_et_al\']""]']"
2419,O=C(O)/C=C/c1ccccc1,O,0,0,4.45,[4.45],"['[""[\'hunt_et_al\']""]']"
2420,CSc1ccc([NH3+])cc1Cl,O,0,0,3.38,[3.38],"['[""[\'hunt_et_al\']""]']"
2421,CC(C)C[C@H]([NH3+])c1ccc(F)cc1,O,0,0,9.25,[9.25],"['[""[\'hunt_et_al\']""]']"
2422,[NH3+]CCc1ccc(O)c(O)c1,O,0,0,8.87,[8.87],"['[""[\'hunt_et_al\']""]']"
2423,[NH3+]c1ccc(-c2ccccc2)cc1[N+](=O)[O-],O,0,0,-0.76,[-0.76],"['[""[\'hunt_et_al\']""]']"
2424,O=P1(NS(=O)(=O)C(F)(F)F)OC2=C(c3c4c(cc(-c5ccc(F)cc5)c3O1)CCCC4)C1CCCCC1C=C2c1ccc(F)cc1,CC#N,1431711-91-9,-,6.26,"[6.22, 6.3]","['[""[\'Ejoc202001649-sup-00001-misc_information.pdf\', \'leito_acids\']""]']"
2425,CCCCC[NH+]1CCOCC1,O,0,0,7.69,[7.69],"['[""[\'hunt_et_al\']""]']"
2426,[NH3+]c1ccc([N+](=O)[O-])cc1,O,0,0,1.0,[1.0],"['[""[\'hunt_et_al\']""]']"
2427,OCC(CO)(CO)CO,O,0,0,14.1,[14.1],"['[""[\'hunt_et_al\']""]']"
2428,[NH3+]c1cccc2cc(Cl)ccc12,O,0,0,3.48,[3.48],"['[""[\'hunt_et_al\']""]']"
2429,O=[N+]([O-])c1cc([N+](=O)[O-])c(Nc2c([N+](=O)[O-])cc([N+](=O)[O-])cc2[N+](=O)[O-])c([N+](=O)[O-])c1,O,0,0,4.025,"[5.42, 2.63]","['[""[\'hunt_et_al\']""]', '[""[\'Ejoc202001649-sup-00001-misc_information.pdf\']""]']"
2430,CCCCCC[N@@H+](CC[N+]1(C)CCCCC1)c1ccccc1,O,0,0,3.13,[3.13],"['[""[\'hunt_et_al\']""]']"
2431,COC(=O)c1ccc([NH+](C)C)cc1,O,0,0,2.52,[2.52],"['[""[\'hunt_et_al\']""]']"
2432,CC1(C)S[C@@H]2[C@H](NC(=O)COc3ccccc3)C(=O)N2[C@H]1C(=O)O,O,0,0,2.79,[2.79],"['[""[\'hunt_et_al\']""]']"
2433,CCCC(=O)O,CC#N,107-92-6,butanoic acid,22.7,[22.7],"['[""[\'MeCN_Acids_COSMO-RS_2008_Table.pdf\']""]']"
2434,CCOc1ccccc1O,O,0,0,10.11,[10.11],"['[""[\'hunt_et_al\']""]']"
2435,O=C([O-])C(=O)O,O,0,0,4.29,[4.29],"['[""[\'hunt_et_al\']""]']"
2436,Cc1ccc(C(C#N)C#N)cc1,CS(=O)C,33534-88-2,2-(4-methylphenyl)propanedinitrile,4.85,[4.85],"['[""[\'Ejoc202001649-sup-00001-misc_information.pdf\']""]']"
2437,CN(C)P(=N[P+](N=P(N(C)C)(N(C)C)N(C)C)(N=P(N(C)C)(N(C)C)N(C)C)NC(C)(C)C)(N(C)C)N(C)C,O,-,(tert-butylamino)-tris[[tris(dimethylamino)-_5-phosphanylidene]amino]phosphanium,30.0,[30.0],"['[""[\'Bases_pKa_values_MeCN_DMSO_THF_Water.pdf\']""]']"
2438,CC[NH+](CC)CCOC(=O)c1ccc(Cl)cc1,O,0,0,8.08,[8.08],"['[""[\'hunt_et_al\']""]']"
2439,CSc1ccc([NH3+])c(I)c1,O,0,0,2.45,[2.45],"['[""[\'hunt_et_al\']""]']"
2440,Cc1cc(Cl)ccc1OCC(=O)O,O,0,0,3.28,[3.28],"['[""[\'hunt_et_al\']""]']"
2441,Oc1c(Cl)c(Cl)c(Cl)c(Cl)c1Cl,CN(C)C=O,87-86-5,"2,3,4,5,6-pentachlorophenol",7.97,[7.97],"['[""[\'Ejoc202001649-sup-00001-misc_information.pdf\']""]']"
2442,CC[NH+](CC)CC(=O)Nc1c(C)cccc1C,O,0,0,7.92,"[7.9, 7.94]","['[""[\'hunt_et_al\']"", ""[\'hunt_et_al\']""]']"
2443,CC[NH2+]CC,C1CCOC1,-,diethylazanium,13.0,[13.0],"['[""[\'Bases_pKa_values_MeCN_DMSO_THF_Water.pdf\']""]']"
2444,C[NH2+]c1ccccc1,O,-,methyl(phenyl)azanium,4.849,"[4.85, 4.848]","['[""[\'Bases_pKa_values_MeCN_DMSO_THF_Water.pdf\']""]', '[""[\'hunt_et_al\']""]']"
2445,CC[C@@H]1CCC[NH2+]1,O,0,0,10.43,[10.43],"['[""[\'hunt_et_al\']""]']"
2446,C[NH2+]Cc1ccccn1,O,0,0,8.82,[8.82],"['[""[\'hunt_et_al\']""]']"
2447,CSc1ccc([C@@H](O)C[NH2+]C(C)C)cc1,O,0,0,9.06,[9.06],"['[""[\'hunt_et_al\']""]']"
2448,CN(C(=O)c1ccccc1)c1cccc[nH+]1,O,0,0,1.44,[1.44],"['[""[\'hunt_et_al\']""]']"
2449,O=C(O)CCCOc1ccc(Cl)cc1Cl,O,0,0,4.1,[4.1],"['[""[\'hunt_et_al\']""]']"
2450,O=C(O)c1ccc(C2CCCCC2)cc1,O,0,0,4.39,[4.39],"['[""[\'hunt_et_al\']""]']"
2451,C=CCc1ccc(O)c(OC)c1,O,0,0,10.19,[10.19],"['[""[\'hunt_et_al\']""]']"
2452,Oc1cccnc1,O,0,0,8.72,[8.72],"['[""[\'hunt_et_al\']""]']"
2453,O=[N+]([O-])c1cccc2[nH]ccc12,CC#N,4769-97-5,4-nitro-1H-indole,27.89,"[27.89, 27.89]","['[""[\'pKa_values_of_acids_in_acetonitrile.pdf\', \'Ejoc202001649-sup-00001-misc_information.pdf\']""]']"
2454,CCc1cccc(O)c1,O,0,0,9.9,[9.9],"['[""[\'hunt_et_al\']""]']"
2455,CC(C)[NH2+]c1ccccc1[N+](=O)[O-],O,0,0,0.09,[0.09],"['[""[\'hunt_et_al\']""]']"
2456,CC[NH2+]C[Si](C)(C)C,O,0,0,11.12,[11.12],"['[""[\'hunt_et_al\']""]']"
2457,C[n+]1cccc2cccc(O)c21,O,0,0,6.78,[6.78],"['[""[\'hunt_et_al\']""]']"
2458,Oc1cc(C(F)(F)F)cc(C(F)(F)F)c1,O,349-58-6,"3,5-bis(trifluoromethyl)phenol",8.03,[8.03],"['[""[\'Ejoc202001649-sup-00001-misc_information.pdf\']""]']"
2459,N#CC(c1c(F)c(F)cc(F)c1F)c1c(F)c(F)c(F)c(F)c1F,C(CCl)Cl,42254-09-1,"2-(2,3,4,5,6-pentafluorophenyl)-2-(2,3,5,6-tetrafluorophenyl)acetonitrile",55.7,"[55.7, 55.7]","['[""[\'leito_acids\']"", ""[\'Ejoc202001649-sup-00001-misc_information.pdf\']""]']"
2460,O=C(O)Cc1c[nH]c2ccccc12,O,0,0,4.75,[4.75],"['[""[\'hunt_et_al\']""]']"
2461,CCO[P@@](C)(=O)OCC[NH+](C)C,O,0,0,8.14,[8.14],"['[""[\'hunt_et_al\']""]']"
2462,CCn1cc(C(=O)O)c(=O)c2cc(F)c(N3CC[NH2+]CC3)cc21,O,0,0,6.3,[6.3],"['[""[\'hunt_et_al\']""]']"
2463,C[NH2+]C[C@H](O)c1ccccc1,O,0,0,9.44,[9.44],"['[""[\'hunt_et_al\']""]']"
2464,COc1cc[nH+]c(NC2CCN(C(=O)c3ccc(C#N)cc3)CC2)c1,O,0,0,7.1,[7.1],"['[""[\'hunt_et_al\']""]']"
2465,O=C(O)Cc1ccccc1I,O,0,0,4.04,[4.04],"['[""[\'hunt_et_al\']""]']"
2466,Cc1ccc(NS(=O)(=O)c2ccccc2)cc1,O,0,0,8.64,[8.64],"['[""[\'hunt_et_al\']""]']"
2467,CCCCCCCCC[NH3+],O,0,0,10.64,[10.64],"['[""[\'hunt_et_al\']""]']"
2468,CN1C(C(=O)Nc2cccc[nH+]2)=C(O)c2ccccc2S1(=O)=O,O,0,0,5.3,[5.3],"['[""[\'hunt_et_al\']""]']"
2469,O=[N+]([O-])c1cc(Br)c(O)c(Br)c1,O,0,0,3.39,[3.39],"['[""[\'hunt_et_al\']""]']"
2470,O=[N+]([O-])c1cccc(O)c1,CC#N,554-84-7,3-nitrophenol,23.8,[23.8],"['[""[\'MeCN_Acids_COSMO-RS_2008_Table.pdf\']""]']"
2471,CCc1cc(C(C)C)c(C)cc1O,O,0,0,10.85,[10.85],"['[""[\'hunt_et_al\']""]']"
2472,[NH3+]Cc1ccc(F)cc1,O,0,0,9.3,[9.3],"['[""[\'hunt_et_al\']""]']"
2473,CC(C)c1cc(C(C)C)c(-c2cc3ccccc3c3c2OP(=O)(O)Oc2c(-c4c(C(C)C)cc(C(C)C)cc4C(C)C)cc4ccccc4c2-3)c(C(C)C)c1,CS(=O)C,791616-63-2,"13-hydroxy-10,16-bis[2,4,6-tri(propan-2-yl)phenyl]-12,14-dioxa-135-phosphapentacyclo[13.8.0.02,11.03,8.018,23]tricosa-1(15),2(11),3,5,7,9,16,18,20,22-decaene 13-oxide",4.22,[4.22],"['[""[\'Ejoc202001649-sup-00001-misc_information.pdf\']""]']"
2474,CCC[NH2+]C[C@H](O)c1ccc(O)c(O)c1,O,0,0,8.57,[8.57],"['[""[\'hunt_et_al\']""]']"
2475,c1cnc2c(c1)ccc1ccc[nH+]c12,CC#N,-,"1,10-phenanthrolin-10-ium",13.684999999999999,"[13.68, 13.69]","['[""[\'pKa_values_of_nitrogen_heterocycles.pdf\', \'Bases_pKa_values_MeCN_DMSO_THF_Water.pdf\']""]']"
2476,NS(=O)(=O)c1ccc(F)cc1,CC#N,402-46-0,4-fluorobenzenesulfonamide,25.175,"[24.19, 26.16]","['[""[\'MeCN_Acids_COSMO-RS_2008_Table.pdf\', \'Ejoc202001649-sup-00001-misc_information.pdf\']""]']"
2477,c1ccc(C[NH2+]c2ccccc2)cc1,O,0,0,4.04,[4.04],"['[""[\'hunt_et_al\']""]']"
2478,NC1=[NH+][C@H](c2ccco2)Nc2ccccc21,O,0,0,9.13,[9.13],"['[""[\'hunt_et_al\']""]']"
2479,Cc1ccc([N+](=O)[O-])cc1[NH3+],O,0,0,2.345,[2.345],"['[""[\'hunt_et_al\']""]']"
2480,C[N+](C)(C)c1cccc(CCC(=O)O)c1,O,0,0,4.17,[4.17],"['[""[\'hunt_et_al\']""]']"
2481,C/C=C/C(=O)O,O,0,0,4.44,[4.44],"['[""[\'hunt_et_al\']""]']"
2482,O=C(NC[C@@H](O)C[NH+]1CCC(Oc2ccc(Cl)c(Cl)c2)CC1)c1c[nH]c(=O)cc1C(F)(F)F,O,0,0,8.0,"[7.7, 8.3]","['[""[\'hunt_et_al\']""]', '[""[\'hunt_et_al\']""]']"
2483,O=[N+]([O-])c1cc(S(=O)(=O)NS(=O)(=O)c2ccc(Cl)c([N+](=O)[O-])c2)ccc1Cl,CC#N,64646-01-1,4-chloro-N-((4-chloro-3-nitrophenyl)sulfonyl)-3-nitrobenzenesulfonamide,7.47,[7.47],"['[""[\'Ejoc202001649-sup-00001-misc_information.pdf\']""]']"
2484,C[NH+]1CC2CCC(CC2)C1,O,0,0,10.24,[10.24],"['[""[\'hunt_et_al\']""]']"
2485,O=C([O-])CS,O,0,0,10.4,[10.4],"['[""[\'hunt_et_al\']""]']"
2486,Cc1ccc(S(N)(=O)=O)cc1,CS(=O)C,70-55-3,4-methylbenzenesulfonamide,16.3,[16.3],"['[""[\'Ejoc202001649-sup-00001-misc_information.pdf\']""]']"
2487,CC[NH+](CC)CCC[NH+](CC)CC,O,0,0,8.2,[8.2],"['[""[\'hunt_et_al\']""]']"
2488,[NH3+][C@@H]1C[C@H]1c1ccccc1,O,0,0,8.27,[8.27],"['[""[\'hunt_et_al\']""]']"
2489,O=[N+]([O-])c1ccc2c(c1)Oc1ccccc1N2,CC#N,-,3-nitro-10H-phenoxazine,25.7,[25.7],"['[""[\'MeCN_Acids_COSMO-RS_2008_Table.pdf\']""]']"
2490,CCCCCCCC[NH+](C[C@@H](C)O)C[C@@H](C)O,O,0,0,8.3,[8.3],"['[""[\'hunt_et_al\']""]']"
2491,COc1c(N2CC[NH2+][C@H](C)C2)c(F)cc2c(=O)c(C(=O)[O-])cn(C3CC3)c12,O,0,0,9.18,[9.18],"['[""[\'hunt_et_al\']""]']"
2492,CO/N=C1\CN(c2nc3c(cc2F)c(=O)c(C(=O)O)cn3C2CC2)C[C@@H]1CN,O,0,0,6.36,[6.36],"['[""[\'hunt_et_al\']""]']"
2493,c1ccc2nc[nH+]cc2c1,CC#N,,quinazolin-3-ium,9.19,[9.19],"['[""[\'pKa_values_of_nitrogen_heterocycles.pdf\']""]']"
2494,CC[NH+](CCCl)CCCl,O,0,0,6.55,[6.55],"['[""[\'hunt_et_al\']""]']"
2495,CCCCCC(=O)NO,O,0,0,9.75,[9.75],"['[""[\'hunt_et_al\']""]']"
2496,Cn1c(=O)c2c(ncn2CC[NH+](C)C)n(C)c1=O,O,0,0,7.5,[7.5],"['[""[\'hunt_et_al\']""]']"
2497,COc1ccc(C(=O)NO)cc1,O,0,0,9.0,[9.0],"['[""[\'hunt_et_al\']""]']"
2498,NS(=O)(=O)c1ccc(C(F)(F)F)cc1,O,830-43-3,4-(trifluoromethyl)benzenesulfonamide,9.64,[9.64],"['[""[\'Ejoc202001649-sup-00001-misc_information.pdf\']""]']"
2499,[NH3+]c1ccc(C2CCC2)cc1,O,0,0,4.8,[4.8],"['[""[\'hunt_et_al\']""]']"
2500,O=[N+]([O-])C1=NC=C[NH2+]1,CC#N,,2-nitro-1H-imidazol-1-ium,5.54,[5.54],"['[""[\'pKa_values_of_nitrogen_heterocycles.pdf\']""]']"
2501,C#CC(C)(C)[NH2+]C(C)(C)C=C,O,0,0,8.2,[8.2],"['[""[\'hunt_et_al\']""]']"
2502,O=S(=O)([O-])CCS,O,0,0,9.2,[9.2],"['[""[\'hunt_et_al\']""]']"
2503,COc1cc(O)ncn1,O,0,0,8.47,[8.47],"['[""[\'hunt_et_al\']""]']"
2504,[NH3+]c1cccc2c1Cc1ccccc1-2,O,0,0,3.87,[3.87],"['[""[\'hunt_et_al\']""]']"
2505,CC(=O)C(=O)O,O,0,0,2.49,[2.49],"['[""[\'hunt_et_al\']""]']"
2506,[NH3+]c1ccc2ccc([N+](=O)[O-])cc2c1,O,0,0,3.1,[3.1],"['[""[\'hunt_et_al\']""]']"
2507,CC1=C(C(=O)[O-])N2C(=O)[C@@H](NC(=O)[C@H]([NH3+])c3ccc(O)cc3)[C@H]2SC1,O,0,0,7.0,[7.0],"['[""[\'hunt_et_al\']""]']"
2508,C[n+]1ccc2ccc(O)cc2c1,O,0,0,7.06,[7.06],"['[""[\'hunt_et_al\']""]']"
2509,NCCS,O,0,0,8.3,[8.3],"['[""[\'hunt_et_al\']""]']"
2510,COC(=O)C1c2ccccc2-c2ccccc21,CS(=O)C,3002-30-0,methyl 9H-fluorene-9-carboxylate,10.35,"[10.35, 10.35]","['[""[\'a_unified_view_to_bronsted_acidity_scales.pdf\', \'Ejoc202001649-sup-00001-misc_information.pdf\']""]']"
2511,C[C@H](CC(C#N)(c1ccccc1)c1ccccc1)[NH+]1CCOCC1,O,0,0,6.05,[6.05],"['[""[\'hunt_et_al\']""]']"
2512,Cc1ccccc1[NH2+][C@H]1CCc2ccccc21,O,0,0,0.83,[0.83],"['[""[\'hunt_et_al\']""]']"
2513,CC(Br)(Br)C(=O)O,O,0,0,1.48,[1.48],"['[""[\'hunt_et_al\']""]']"
2514,O=C(O)CCS,O,0,0,10.27,[10.27],"['[""[\'hunt_et_al\']""]']"
2515,O=C(O)CCCc1ccccc1,O,0,0,4.76,[4.76],"['[""[\'hunt_et_al\']""]']"
2516,CCCC[P@@H](=O)O,O,0,0,3.41,[3.41],"['[""[\'hunt_et_al\']""]']"
2517,CCCc1cc(CCC)c(O)c(CCC)c1,O,0,0,11.59,[11.59],"['[""[\'hunt_et_al\']""]']"
2518,[NH3+]c1ccccc1[N+](=O)[O-],O,0,0,-0.26,[-0.26],"['[""[\'hunt_et_al\']""]']"
2519,c1cc(CC[NH+]2CCCC2)ccn1,O,0,0,9.27,[9.27],"['[""[\'hunt_et_al\']""]']"
2520,c1ccc(CC[NH+]2CCCCC2)nc1,O,0,0,9.29,[9.29],"['[""[\'hunt_et_al\']""]']"
2521,c1c[nH+]ccn1,O,-,pyrazin-1-ium,0.6,"[0.6, 0.6]","['[""[\'pKa_values_of_nitrogen_heterocycles.pdf\', \'Bases_pKa_values_MeCN_DMSO_THF_Water.pdf\']""]']"
2522,CC(C)[NH+](CCO)C(C)C,O,0,0,10.08,[10.08],"['[""[\'hunt_et_al\']""]']"
2523,CC([NH3+])(CO)CO,O,0,0,8.801,[8.801],"['[""[\'hunt_et_al\']""]']"
2524,O=C(O)C(O)(c1ccccc1)c1ccccc1,O,0,0,3.05,[3.05],"['[""[\'hunt_et_al\']""]']"
2525,O=P1(NS(=O)(=O)C(F)(F)F)Oc2c(-c3ccccc3)cc3ccccc3c2-c2c(c(C3C=CC=CC3)cc3ccccc23)O1,CC#N,1010799-98-0,,6.4,[6.4],"['[""[\'leito_acids\']""]']"
2526,[NH3+]c1cc(Br)cc(Br)c1,O,0,0,2.34,[2.34],"['[""[\'hunt_et_al\']""]']"
2527,CC1CC[NH2+]CC1,O,0,0,11.23,[11.23],"['[""[\'hunt_et_al\']""]']"
2528,CSc1cccc([C@@H](O)C[NH2+]C(C)C)c1,O,0,0,9.42,[9.42],"['[""[\'hunt_et_al\']""]']"
2529,O=c1n(CCC[NH+]2CCN(c3cccc(Cl)c3)CC2)nc2ccccn12,O,0,0,6.8,[6.8],"['[""[\'hunt_et_al\']""]']"
2530,CSc1ccc([NH3+])c([N+](=O)[O-])c1,O,0,0,-0.28,[-0.28],"['[""[\'hunt_et_al\']""]']"