,Solute SMILES,Solvent SMILES,Solute CAS,Solute IUPAC,pKa (avg),pKa (all),Source (all)
1271,N#CC(C#N)C#N,CC#N,454-50-2,methanetricarbonitrile,5.0,"[5.0, 5.0]","['[""[\'pKa_values_of_acids_in_acetonitrile.pdf\', \'Ejoc202001649-sup-00001-misc_information.pdf\']""]']"
1272,CCC[NH+](CC)CC,C1CCOC1,-,diethyl(propyl)azanium,12.7,[12.7],"['[""[\'Bases_pKa_values_MeCN_DMSO_THF_Water.pdf\']""]']"
1273,[NH3+]c1cccc(C(=O)OC(F)(F)C(F)(F)F)c1,O,0,0,3.24,[3.24],"['[""[\'hunt_et_al\']""]']"
1274,CCC[N@@H+]1CCCC[C@H]1C(=O)Nc1c(C)cccc1C,O,0,0,8.07,[8.07],"['[""[\'hunt_et_al\']""]']"
1275,O=[N+]([O-])c1ccc(S(=O)(=O)NS(=O)(=O)c2ccc(Cl)c([N+](=O)[O-])c2)cc1,C(CCl)Cl,2226486-82-2,-,40.7,"[40.7, 40.7]","['[""[\'Ejoc202001649-sup-00001-misc_information.pdf\', \'leito_acids\']""]']"
1276,Oc1ccccc1C(F)(F)F,CS(=O)C,444-30-4,2-(trifluoromethyl)phenol,14.4,[14.4],"['[""[\'Ejoc202001649-sup-00001-misc_information.pdf\']""]']"
1277,Oc1c(F)c(F)c(F)c2c(F)c(F)c(F)c(F)c12,CC#N,5386-30-1,"2,3,4,5,6,7,8-heptafluoronaphthalen-1-ol",19.713333333333335,"[19.72, 19.7, 19.72]","['[""[\'MeCN_Acids_COSMO-RS_2008_Table.pdf\', \'Ejoc202001649-sup-00001-misc_information.pdf\', \'leito_acids\']""]']"
1278,C[C@@H](C=C(c1cccs1)c1cccs1)[NH+]1CCCCC1,O,0,0,8.41,[8.41],"['[""[\'hunt_et_al\']""]']"
1279,O=C(O)Cc1cccc([N+](=O)[O-])c1,O,0,0,3.97,[3.97],"['[""[\'hunt_et_al\']""]']"
1280,CC(=O)NS(=O)(=O)c1ccc(N)cc1,O,0,0,5.25,[5.25],"['[""[\'hunt_et_al\']""]']"
1281,CCOC(=O)[C@H](CCc1ccccc1)N[C@@H](C)C(=O)N1CCC[C@H]1C(=O)O,O,0,0,3.1,[3.1],"['[""[\'hunt_et_al\']""]']"
1282,C[NH2+][C@H](C)[C@@H](O)c1ccccc1,O,0,0,9.61,[9.61],"['[""[\'hunt_et_al\']""]']"
1283,C[NH2+]CC(F)(F)F,O,0,0,6.1,[6.1],"['[""[\'hunt_et_al\']""]']"
1284,O=C(O)c1cccc([N+](=O)[O-])c1,CC#N,121-92-6,3-nitrobenzoic acid,19.2,[19.2],"['[""[\'MeCN_Acids_COSMO-RS_2008_Table.pdf\']""]']"
1285,Cc1ccc(S(=O)(=O)NS(=O)(=O)c2ccc(Cl)cc2)cc1,CC#N,69173-28-0,N-(4-chlorophenyl)sulfonyl-4-methylbenzenesulfonamide,11.1,"[11.1, 11.1, 11.1]","['[""[\'MeCN_Acids_COSMO-RS_2008_Table.pdf\', \'Ejoc202001649-sup-00001-misc_information.pdf\']"", ""[\'leito_acids\']""]']"
1286,O=C(O)C(Br)Br,O,0,0,1.39,[1.39],"['[""[\'hunt_et_al\']""]']"
1287,CCC(=O)O[C@]1(c2ccccc2)CC[N@H+](C)C[C@@H]1C,O,0,0,8.7,[8.7],"['[""[\'hunt_et_al\']""]']"
1288,CC[NH+](CC)CCC[C@H](C)Nc1ccnc2cc(Cl)ccc12,O,0,0,10.6,[10.6],"['[""[\'hunt_et_al\']""]']"
1289,O=S(=O)(OCC(F)(F)F)c1cc(S(=O)(=O)OCC(F)(F)F)c(O)c(S(=O)(=O)OCC(F)(F)F)c1,CC#N,1263293-53-3,-,7.955,"[7.94, 7.97]","['[""[\'Ejoc202001649-sup-00001-misc_information.pdf\', \'leito_acids\']""]']"
1290,O=[N+]([O-])c1cccc(NS(=O)(=O)c2ccccc2)c1,O,0,0,6.94,[6.94],"['[""[\'hunt_et_al\']""]']"
1291,[NH3+]CCCCCCO,O,0,0,10.6,[10.6],"['[""[\'hunt_et_al\']""]']"
1292,O=[N+]([O-])c1ccc(-c2ccccc2O)cc1,O,0,0,10.42,[10.42],"['[""[\'hunt_et_al\']""]']"
1293,[NH3+]c1ccccc1C1CC1,O,0,0,4.3,[4.3],"['[""[\'hunt_et_al\']""]']"
1294,[NH3+]c1ccc(Cl)cc1,O,0,0,4.15,[4.15],"['[""[\'hunt_et_al\']""]']"
1295,N#Cc1ccc(C(=O)N2CCC3(CC2)Nc2c(F)ccc(F)c2C(N)=[NH+]3)cc1,O,0,0,8.15,[8.15],"['[""[\'hunt_et_al\']""]']"
1296,CCOCC[NH2+]CCOCC,O,0,0,8.47,[8.47],"['[""[\'hunt_et_al\']""]']"
1297,c1ccc(C[C@@H]2CCC[NH2+]2)cc1,O,0,0,10.31,[10.31],"['[""[\'hunt_et_al\']""]']"
1298,C=CC(=O)O,O,0,0,4.25,[4.25],"['[""[\'hunt_et_al\']""]']"
1299,C1CCC[NH2+]CC1,O,0,0,11.1,[11.1],"['[""[\'hunt_et_al\']""]']"
1300,O=[N+]([O-])c1ccc(NS(=O)(=O)c2ccc(Cl)c(C(F)(F)F)c2)c(Cl)c1,O,0,0,4.89,[4.89],"['[""[\'hunt_et_al\']""]']"
1301,c1ccc(C[NH+](Cc2ccccc2)Cc2ccccc2)cc1,O,-,tribenzylazanium,7.44,[7.44],"['[""[\'Bases_pKa_values_MeCN_DMSO_THF_Water.pdf\']""]']"
1302,CCC[NH3+],CC#N,,propylazanium,18.44,[18.44],"['[""[\'Bases_pKa_values_MeCN_DMSO_THF_Water.pdf\']""]']"
1303,C1=C[NH2+]C=N1,CS(=O)C,-,1H-imidazol-1-ium,6.26,[6.26],"['[""[\'Bases_pKa_values_MeCN_DMSO_THF_Water.pdf\']""]']"
1304,C[NH+](C)C,C1CCOC1,,trimethylazanium,12.7,[12.7],"['[""[\'Bases_pKa_values_MeCN_DMSO_THF_Water.pdf\']""]']"
1305,O=C1c2ccccc2C(=O)c2c1ccc(O)c2O,CC#N,72-48-0,"1,2-dihydroxyanthracene-9,10-dione",21.23,"[21.23, 21.23]","['[""[\'pKa_values_of_acids_in_acetonitrile.pdf\', \'Ejoc202001649-sup-00001-misc_information.pdf\']""]']"
1306,N#CC(c1c(F)c(F)nc(F)c1F)c1c(F)c(F)c(F)c(F)c1F,CC#N,62325-51-3,"2-(2,3,4,5,6-pentafluorophenyl)-2-(2,3,5,6-tetrafluoropyridin-4-yl)acetonitrile",16.396,"[16.4, 16.39, 16.4, 16.4, 16.39]","['[""[\'a_unified_view_to_bronsted_acidity_scales.pdf\', \'pKa_values_of_acids_in_acetonitrile.pdf\', \'leito_acids\']"", ""[\'MeCN_Acids_COSMO-RS_2008_Table.pdf\', \'Ejoc202001649-sup-00001-misc_information.pdf\']""]']"
1307,CCOP(=O)(OCC)c1cccc(C(=O)O)c1,O,0,0,3.65,[3.65],"['[""[\'hunt_et_al\']""]']"
1308,C[N+](C)(C)CCc1ccccc1O,O,0,0,9.57,[9.57],"['[""[\'hunt_et_al\']""]']"
1309,c1ccc2c(c1)-c1cccc3c1C2c1ccccc1-3,CC#N,205-94-7,fluoradene,23.910000000000004,"[23.9, 23.92, 23.92, 23.9]","['[""[\'MeCN_Acids_COSMO-RS_2008_Table.pdf\', \'pKa_values_of_acids_in_acetonitrile.pdf\', \'Ejoc202001649-sup-00001-misc_information.pdf\', \'leito_acids\']""]']"
1310,CCCC[NH2+]C[C@H](O)c1ccc(OC)c(OC)c1,O,0,0,9.56,[9.56],"['[""[\'hunt_et_al\']""]']"
1311,Oc1cncc2ccccc12,O,0,0,8.7,[8.7],"['[""[\'hunt_et_al\']""]']"
1312,[NH3+]c1ccccc1,CS(=O)C,65756-50-5,phenylazanium,3.5949999999999998,"[3.59, 3.6]","['[""[\'pKa_values_of_acids_and_bases_in_MeCN_DCE_DMSO_H2O_THF_C7_DME.pdf\', \'Bases_pKa_values_MeCN_DMSO_THF_Water.pdf\']""]']"
1313,O=C(NS(=O)(=O)C(F)(F)F)c1ccccc1,CC#N,39062-91-4,N-(trifluoromethylsulfonyl)benzamide,11.063333333333333,"[11.06, 11.06, 11.07]","['[""[\'leito_acids\']"", ""[\'MeCN_Acids_COSMO-RS_2008_Table.pdf\', \'Ejoc202001649-sup-00001-misc_information.pdf\']""]']"
1314,N#CC(C#N)=CC(C#N)C#N,CC#N,32019-26-4,"prop-1-ene-1,1,3,3-tetracarbonitrile",5.64,[5.64],"['[""[\'pKa_values_of_acids_in_acetonitrile.pdf\']""]']"
1315,Cc1c(C2(c3cc(Br)c(O)c(Br)c3C)OS(=O)(=O)c3ccccc32)cc(Br)c(O)c1Br,CC#N,76-60-8,"2,6-dibromo-4-[3-(3,5-dibromo-4-hydroxy-2-methylphenyl)-1,1-dioxo-2,16-benzoxathiol-3-yl]-3-methylphenol",11.0,[11.0],"['[""[\'a_unified_view_to_bronsted_acidity_scales.pdf\']""]']"
1316,O=P1(NS(=O)(=O)C(F)(F)C(F)(F)C(F)(F)C(F)(F)F)Oc2c(-c3ccccc3)cc3c(c2-c2c4c(cc(C5C=CC=CC5)c2O1)CCCC4)CCCC3,CC#N,1261302-67-3,,6.7,[6.7],"['[""[\'leito_acids\']""]']"
1317,OCC[NH+](CCO)Cc1cccc(F)c1,O,0,0,6.5,[6.5],"['[""[\'hunt_et_al\']""]']"
1318,c1ccc2[nH+]ccnc2c1,O,,quinoxalin-1-ium,0.56,[0.56],"['[""[\'pKa_values_of_nitrogen_heterocycles.pdf\']""]']"
1319,CS(=O)(=O)c1cccc([NH3+])c1,O,0,0,2.561,[2.561],"['[""[\'hunt_et_al\']""]']"
1320,O=C(O)Cn1c(=O)sc2cccc(Cl)c21,O,0,0,3.04,[3.04],"['[""[\'hunt_et_al\']""]']"
1321,O=C(O)[C@H](O)[C@@H](O)[C@@H](O)[C@@H](O)CO,O,0,0,3.62,[3.62],"['[""[\'hunt_et_al\']""]']"
1322,C[Si](C)(C)CC[NH3+],O,0,0,10.97,[10.97],"['[""[\'hunt_et_al\']""]']"
1323,Oc1ccccc1I,O,0,0,8.46,[8.46],"['[""[\'hunt_et_al\']""]']"
1324,C=C(C)CC(=O)O[C@@H](C)[NH+]1CCCCC1,O,0,0,8.37,[8.37],"['[""[\'hunt_et_al\']""]']"
1325,c1c[nH+][nH]n1,C1CCOC1,-,2H-triazol-1-ium,2.5,[2.5],"['[""[\'Bases_pKa_values_MeCN_DMSO_THF_Water.pdf\']""]']"
1326,O=C(NCC12CC3CC(CC(C3)C1)C2)c1cc(CC2CC[NH2+]CC2)ccc1Cl,O,0,0,10.1,[10.1],"['[""[\'hunt_et_al\']""]']"
1327,CC[N@@H+](CCO)C[C@@H](C)O,O,0,0,8.9,[8.9],"['[""[\'hunt_et_al\']""]']"
1328,Cc1ccc[nH+]c1N,O,0,0,7.24,[7.24],"['[""[\'hunt_et_al\']""]']"
1329,O=S(=O)(NS(=O)(=O)C(F)(F)C(F)(F)F)C(F)(F)C(F)(F)F,C(CCl)Cl,152894-10-5,"1,1,2,2,2-pentafluoro-N-(1,1,2,2,2-pentafluoroethylsulfonyl)ethanesulfonamide",32.6,[32.6],"['[""[\'leito_acids\']""]']"
1330,O=C(O)CCc1ccccc1,O,0,0,4.664,[4.664],"['[""[\'hunt_et_al\']""]']"
1331,COc1ccc([N+](=O)[O-])cc1[NH3+],O,0,0,2.49,[2.49],"['[""[\'hunt_et_al\']""]']"
1332,CCO[Si](C)(C)C[NH3+],O,0,0,10.18,[10.18],"['[""[\'hunt_et_al\']""]']"
1333,Cc1cc(C)cc(C(=[NH2+])c2ccccc2)c1,O,0,0,7.18,[7.18],"['[""[\'hunt_et_al\']""]']"
1334,CN(C)c1cccc2cccc([NH+](C)C)c12,CC#N,-,[8-(dimethylamino)naphthalen-1-yl]-dimethylazanium,18.63,[18.63],"['[""[\'Bases_pKa_values_MeCN_DMSO_THF_Water.pdf\']""]']"
1335,Oc1ccccc1,O,108-95-2,phenol,9.99,"[9.99, 9.99]","['[""[\'Ejoc202001649-sup-00001-misc_information.pdf\']""]', '[""[\'hunt_et_al\']""]']"
1336,C[N@H+]1CC[C@]23c4c5ccc(O)c4O[C@H]2[C@@H](O)C=C[C@H]3[C@H]1C5,O,0,0,8.19,"[8.2, 8.18]","['[""[\'hunt_et_al\']"", ""[\'hunt_et_al\']""]']"
1337,CC(C)OP(=O)(OCC[NH+](C)C)OC(C)C,O,0,0,8.06,[8.06],"['[""[\'hunt_et_al\']""]']"
1338,CC(=C(C#N)C#N)C(C#N)C#N,CC#N,24943-63-3,"2-methylprop-1-ene-1,1,3,3-tetracarbonitrile",7.36,[7.36],"['[""[\'pKa_values_of_acids_in_acetonitrile.pdf\']""]']"
1339,CC(C)(C)C[NH2+]c1ccccc1,O,0,0,4.17,[4.17],"['[""[\'hunt_et_al\']""]']"
1340,CS(=O)(=O)c1ccc([NH3+])c(Cl)c1,O,0,0,-0.41,[-0.41],"['[""[\'hunt_et_al\']""]']"
1341,O=C(NS(=O)(=O)N1CCC([NH+]2CCC(Oc3ccc(Cl)c(Cl)c3)CC2)CC1)c1ccccc1,O,0,0,6.199999999999999,"[8.1, 4.3]","['[""[\'hunt_et_al\']""]', '[""[\'hunt_et_al\']""]']"
1342,O=C(O)c1cccc([N+](=O)[O-])c1Cl,O,0,0,2.02,[2.02],"['[""[\'hunt_et_al\']""]']"
1343,CSCC[NH3+],O,0,0,9.49,[9.49],"['[""[\'hunt_et_al\']""]']"
1344,O=C(NC[C@@H](O)C[NH+]1CCC(Oc2ccc(Cl)c(Cl)c2)CC1)c1c[nH]c(=O)c2ccccc12,O,0,0,9.3,"[7.7, 10.9]","['[""[\'hunt_et_al\']""]', '[""[\'hunt_et_al\']""]']"
1345,C[C@@]12CC[C@H]3c4ccc(O)cc4CC[C@@H]3[C@@H]1CCC2=O,O,0,0,10.91,[10.91],"['[""[\'hunt_et_al\']""]']"
1346,CN(C)CC[NH+](C)C,O,-,2-(dimethylamino)ethyl-dimethylazanium,9.125,"[9.15, 9.1]","['[""[\'Bases_pKa_values_MeCN_DMSO_THF_Water.pdf\']""]', '[""[\'hunt_et_al\']""]']"
1347,COc1ccc([C@@H](O)C[NH2+]C(C)(C)C)cc1OC,O,0,0,9.73,[9.73],"['[""[\'hunt_et_al\']""]']"
1348,Cc1ccc(C[NH+](CCO)CCO)cc1,O,0,0,7.2,[7.2],"['[""[\'hunt_et_al\']""]']"
1349,Cn1cc(Br)c(O)nc1=O,O,0,0,7.84,[7.84],"['[""[\'hunt_et_al\']""]']"
1350,CC[C@@H](Oc1ccc(C(F)(F)F)cc1-c1ccc(S(=O)(=O)CC)cc1C)C(=O)O,O,0,0,3.4,[3.4],"['[""[\'hunt_et_al\']""]']"
1351,CC(C)c1ccccc1C(=O)O,O,0,0,3.63,[3.63],"['[""[\'hunt_et_al\']""]']"
1352,O=[N+]([O-])c1ccc(S)cc1,O,0,0,4.6,[4.6],"['[""[\'hunt_et_al\']""]']"
1353,C[NH+]1CCN(c2c(F)cc3c(=O)c(C(=O)[O-])cn(CCF)c3c2F)CC1,O,0,0,7.91,[7.91],"['[""[\'hunt_et_al\']""]']"
1354,C[NH2+]c1ccccc1SC,O,0,0,3.71,[3.71],"['[""[\'hunt_et_al\']""]']"
1355,c1ccc2c(c1)CCC[C@H]2C1=[NH+]CCN1,O,0,0,10.6,[10.6],"['[""[\'hunt_et_al\']""]']"
1356,Nc1c(S(=O)(=O)F)cc(S(=O)(=O)F)cc1S(=O)(=O)F,CC#N,133213-11-3,"2-aminobenzene-1,3,5-trisulfonyl fluoride",19.66,"[19.66, 19.66, 19.66]","['[""[\'MeCN_Acids_COSMO-RS_2008_Table.pdf\', \'Ejoc202001649-sup-00001-misc_information.pdf\', \'leito_acids\']""]']"
1357,CCCCOc1ccc([NH3+])c([N+](=O)[O-])c1,O,0,0,0.74,[0.74],"['[""[\'hunt_et_al\']""]']"
1358,CCOC(=O)c1cc([NH3+])cc([N+](=O)[O-])c1,O,0,0,0.98,[0.98],"['[""[\'hunt_et_al\']""]']"
1359,COc1ccc(O)c([N+](=O)[O-])c1,O,0,0,7.33,[7.33],"['[""[\'hunt_et_al\']""]']"
1360,CCc1cnc(NC)[nH+]c1,O,0,0,4.29,[4.29],"['[""[\'hunt_et_al\']""]']"
1361,Nc1ccc2ccccc2[nH+]1,O,0,0,7.3,[7.3],"['[""[\'hunt_et_al\']""]']"
1362,c1ccc(C[NH2+]CC(c2ccccc2)c2ccccc2)cc1,O,0,0,7.6,[7.6],"['[""[\'hunt_et_al\']""]']"
1363,Clc1ccccc1C(c1ccccc1)(c1ccccc1)n1cc[nH+]c1,O,0,0,5.8,[5.8],"['[""[\'hunt_et_al\']""]']"
1364,[NH3+]c1cccc2cc([N+](=O)[O-])ccc12,O,0,0,2.89,[2.89],"['[""[\'hunt_et_al\']""]']"
1365,CN(C)[P+](NC(C)(C)C)(N(C)C)N(C)C,C1CCOC1,-,(tert-butylamino)-tris(dimethylamino)phosphanium,18.9,[18.9],"['[""[\'Bases_pKa_values_MeCN_DMSO_THF_Water.pdf\']""]']"
1366,N#CC1=CC(C#N)C=C1C#N,CC#N,215395-09-8,"cyclopenta-2,5-diene-1,2,4-tricarbonitrile",3.75,"[4.16, 3.68, 3.68, 3.65, 3.65, 3.68]","['[""[\'MeCN_Acids_COSMO-RS_2008_Table.pdf\', \'DCE_2011_pKa_Table_MeCN.pdf\', \'a_unified_view_to_bronsted_acidity_scales.pdf\', \'pKa_values_of_acids_in_acetonitrile.pdf\', \'Ejoc202001649-sup-00001-misc_information.pdf\', \'leito_acids\']""]']"
1367,O=C([O-])COCC[NH+]1CCN([C@H](c2ccccc2)c2ccc(Cl)cc2)CC1,O,0,0,7.95,[7.95],"['[""[\'hunt_et_al\']""]']"
1368,[NH2+]=C1CCCCC1,O,0,0,9.15,[9.15],"['[""[\'hunt_et_al\']""]']"
1369,C[C@H]([NH3+])c1ccccc1,O,0,0,9.35,[9.35],"['[""[\'hunt_et_al\']""]']"
1370,N[C@@H](CCS)C(=O)O,O,0,0,8.7,[8.7],"['[""[\'hunt_et_al\']""]']"
1371,C[Si](C)(C)CCC[NH3+],O,0,0,10.73,[10.73],"['[""[\'hunt_et_al\']""]']"
1372,C[C@H](CO)Nc1nc(SCc2cccc(F)c2F)nc2[nH]c(=O)c(C#N)cc12,O,0,0,7.9,[7.9],"['[""[\'hunt_et_al\']""]']"
1373,Oc1cnccn1,O,0,0,8.25,[8.25],"['[""[\'hunt_et_al\']""]']"
1374,O=[N+]([O-])c1ccc(O)c([N+](=O)[O-])c1,C1CCOC1,51-28-5,"2,4-dinitrophenol",16.94,[16.94],"['[""[\'pKa_values_of_acids_and_bases_in_MeCN_DCE_DMSO_H2O_THF_C7_DME.pdf\']""]']"
1375,O=C(O)c1ccc([N+](=O)[O-])cc1[N+](=O)[O-],O,0,0,1.42,[1.42],"['[""[\'hunt_et_al\']""]']"
1376,CN1CCC[NH+]2CCCN=C12,CC#N,-,"1-methyl-3,4,5,6,7,8-hexahydro-2H-pyrimido[1,2-a]pyrimidin-5-ium",25.47,[25.47],"['[""[\'Bases_pKa_values_MeCN_DMSO_THF_Water.pdf\']""]']"
1377,C[C@@H](C=C(c1cccs1)c1cccs1)[NH+](C)C,O,0,0,8.9,[8.9],"['[""[\'hunt_et_al\']""]']"
1378,[NH3+]CC(Cl)(Cl)C(Cl)(Cl)Cl,O,0,0,6.58,[6.58],"['[""[\'hunt_et_al\']""]']"
1379,O=C(O)c1ccc[n+]([O-])c1,O,0,0,2.79,[2.79],"['[""[\'hunt_et_al\']""]']"
1380,CN(C)C(=N)[NH+](C)C,CS(=O)C,-,"(N,N-dimethylcarbamimidoyl)-dimethylazanium",13.2,"[13.2, 13.2]","['[""[\'pKa_values_of_acids_and_bases_in_MeCN_DCE_DMSO_H2O_THF_C7_DME.pdf\', \'Bases_pKa_values_MeCN_DMSO_THF_Water.pdf\']""]']"
1381,N#CC(C#N)S(=O)(=O)C(F)(F)F,C(CCl)Cl,278796-64-8,2-(trifluoromethylsulfonyl)propanedinitrile,33.5,[33.5],"['[""[\'leito_acids\']""]']"
1382,[NH2+]=C(c1ccccc1)c1cccc(Cl)c1,O,0,0,5.69,[5.69],"['[""[\'hunt_et_al\']""]']"
1383,Oc1c(Cl)cccc1Cl,O,0,0,6.79,[6.79],"['[""[\'hunt_et_al\']""]']"
1384,c1ccc2[nH]ccc2c1,O,120-72-9,1H-indole,16.97,[16.97],"['[""[\'Ejoc202001649-sup-00001-misc_information.pdf\']""]']"
1385,C#CCc1c(C)nc(O)nc1C,O,0,0,10.25,[10.25],"['[""[\'hunt_et_al\']""]']"
1386,C[C@H]1COc2c(N3CC[NH+](C)CC3)c(F)cc3c(=O)c(C(=O)[O-])cn1c23,O,0,0,8.14,[8.14],"['[""[\'hunt_et_al\']""]']"
1387,[NH3+]c1cc(Cl)ccc1Cl,O,0,0,1.57,[1.57],"['[""[\'hunt_et_al\']""]']"
1388,Cc1cc([N+](=O)[O-])cc([N+](=O)[O-])c1O,CC#N,534-52-1,"2-methyl-4,6-dinitrophenol",16.97,[16.97],"['[""[\'Ejoc202001649-sup-00001-misc_information.pdf\']""]']"
1389,CC(=O)c1ccccc1[NH3+],O,0,0,2.22,[2.22],"['[""[\'hunt_et_al\']""]']"
1390,Nc1[nH+]cccc1[N+](=O)[O-],O,0,0,2.33,[2.33],"['[""[\'hunt_et_al\']""]']"
1391,C[S@](=O)O,O,0,0,1.65,[1.65],"['[""[\'hunt_et_al\']""]']"
1392,Sc1cccc(Cl)c1,O,0,0,5.78,[5.78],"['[""[\'hunt_et_al\']""]']"
1393,C=CCc1c(C)nc(O)nc1C,O,0,0,10.74,[10.74],"['[""[\'hunt_et_al\']""]']"
1394,CCOC(=O)c1ccccc1[NH+](C)C,O,0,0,5.48,[5.48],"['[""[\'hunt_et_al\']""]']"
1395,CC(C)[NH2+]C[C@H](O)c1cccc(Cl)c1,O,0,0,9.42,[9.42],"['[""[\'hunt_et_al\']""]']"
1396,Oc1ccc2ccccc2c1/N=N/c1nccs1,O,0,0,8.94,[8.94],"['[""[\'hunt_et_al\']""]']"
1397,C[C@@H]1CCC[N@H+](C)C1,O,0,0,10.02,[10.02],"['[""[\'hunt_et_al\']""]']"
1398,Cn1cc[nH+]c1C(=O)O,O,0,0,1.53,[1.53],"['[""[\'hunt_et_al\']""]']"
1399,C[NH+]1CCN(c2c(F)cc3c(=O)c(C(=O)O)cn(CCF)c3c2F)CC1,O,0,0,6.755,"[7.91, 5.6]","['[""[\'hunt_et_al\']""]', '[""[\'hunt_et_al\']""]']"
1400,C[NH2+][C@H](C)Cc1ccccc1,O,0,0,9.99,[9.99],"['[""[\'hunt_et_al\']""]']"
1401,O=S(=O)(c1cc(S(=O)(=O)C(F)(F)F)c(O)c(S(=O)(=O)C(F)(F)F)c1)C(F)(F)F,C(CCl)Cl,71571-37-4,"2,4,6-tris(trifluoromethylsulfonyl)phenol",38.4,"[38.4, 38.4]","['[""[\'leito_acids\']"", ""[\'Ejoc202001649-sup-00001-misc_information.pdf\']""]']"
1402,CCOC(=O)[C@H](CCc1ccccc1)[NH2+][C@@H](C)C(=O)N1CCC[C@H]1C(=O)[O-],O,0,0,6.4,[6.4],"['[""[\'hunt_et_al\']""]']"
1403,CC(C)c1cc(O)c(=O)ccc1Br,O,0,0,4.54,[4.54],"['[""[\'hunt_et_al\']""]']"
1404,CC(C)c1ccc([C@H](C)[NH3+])cc1,O,0,0,9.42,[9.42],"['[""[\'hunt_et_al\']""]']"
1405,Cc1nc(O)nc(C)c1C,O,0,0,10.85,[10.85],"['[""[\'hunt_et_al\']""]']"
1406,c1cnc[nH+]c1,C1CCOC1,-,pyrimidin-1-ium,2.4,[2.4],"['[""[\'Bases_pKa_values_MeCN_DMSO_THF_Water.pdf\']""]']"
1407,N#Cc1cc([NH3+])cc([N+](=O)[O-])c1,O,0,0,0.45,[0.45],"['[""[\'hunt_et_al\']""]']"
1408,C[NH+]1C(C)(C)CCCC1(C)C,O,0,0,11.19,[11.19],"['[""[\'hunt_et_al\']""]']"
1409,Oc1ccc(/N=N/c2ccccn2)c2ccccc12,O,0,0,9.1,[9.1],"['[""[\'hunt_et_al\']""]']"
1410,C[C@H]1CN(c2c(F)c(N)c3c(=O)c(C(=O)[O-])cn(C4CC4)c3c2F)C[C@@H](C)[NH2+]1,O,0,0,8.94,[8.94],"['[""[\'hunt_et_al\']""]']"
1411,O=C(O)C(=O)O,CC#N,144-62-7,oxalic acid,14.5,[14.5],"['[""[\'MeCN_Acids_COSMO-RS_2008_Table.pdf\']""]']"
1412,N#CC(C#N)=C(N)C(C#N)C#N,C(CCl)Cl,98555-43-2,"2-aminoprop-1-ene-1,1,3,3-tetracarbonitrile",38.2,[38.2],"['[""[\'leito_acids\']""]']"
1413,CC(C)(C(=O)O)c1ccc([C@@H](O)CCC[NH+]2CCC(C(O)(c3ccccc3)c3ccccc3)CC2)cc1,O,0,0,4.895,"[7.53, 2.26]","['[""[\'hunt_et_al\']""]', '[""[\'hunt_et_al\']""]']"
1414,C[N@@H+](CCO)CCCl,O,0,0,7.48,[7.48],"['[""[\'hunt_et_al\']""]']"
1415,[NH3+]c1cc(Cl)c2ccccc2c1,O,0,0,3.38,[3.38],"['[""[\'hunt_et_al\']""]']"
1416,[NH3+]c1c(Cl)cc(Cl)cc1Cl,O,0,0,-0.03,[-0.03],"['[""[\'hunt_et_al\']""]']"
1417,CC(C)C[NH3+],O,58471-06-0,2-methylpropylazanium,10.57,"[10.42, 10.72]","['[""[\'Bases_pKa_values_MeCN_DMSO_THF_Water.pdf\']""]', '[""[\'hunt_et_al\']""]']"
1418,COc1ccc([C@@H]2Sc3ccccc3N(CC[NH+](C)C)C(=O)[C@@H]2OC(C)=O)cc1,O,0,0,8.08,[8.08],"['[""[\'hunt_et_al\']""]']"
1419,CC(C)[NH2+]C[C@H](O)c1ccc(Cl)cc1,O,0,0,9.21,[9.21],"['[""[\'hunt_et_al\']""]']"
1420,Cc1c([N+](=O)[O-])cc([N+](=O)[O-])cc1[N+](=O)[O-],CC#N,118-96-7,"2-methyl-1,3,5-trinitrobenzene",23.2,[23.2],"['[""[\'MeCN_Acids_COSMO-RS_2008_Table.pdf\']""]']"
1421,[NH3+]c1ccc([C@@]23CCC[C@@H]2C3)cc1,O,0,0,4.98,[4.98],"['[""[\'hunt_et_al\']""]']"
1422,CN(C)CCNc1cc(-c2ccc(N3CC[NH+](C)CC3)cc2)nc2ccccc12,O,0,0,8.94,[8.94],"['[""[\'hunt_et_al\']""]']"
1423,CN(C)c1cc(O)ncn1,O,0,0,10.49,[10.49],"['[""[\'hunt_et_al\']""]']"
1424,Cc1nc(N)[nH+]cc1Br,O,0,0,2.61,[2.61],"['[""[\'hunt_et_al\']""]']"
1425,Cc1c(C)c(O)c(C)c(C)c1O,O,0,0,11.25,[11.25],"['[""[\'hunt_et_al\']""]']"
1426,Nc1cc(Cl)cc[nH+]1,O,0,0,5.7,[5.7],"['[""[\'hunt_et_al\']""]']"
1427,C[NH2+][C@H](C)Cc1ccc(OC)c(OC)c1,O,0,0,9.81,[9.81],"['[""[\'hunt_et_al\']""]']"
1428,Clc1ccc(C[NH2+]C(Cc2ccccc2)Cc2ccccc2)cc1,O,0,0,6.1,[6.1],"['[""[\'hunt_et_al\']""]']"
1429,CCOc1cccc([NH3+])c1,O,0,0,4.18,[4.18],"['[""[\'hunt_et_al\']""]']"
1430,[NH3+]CCSCCO,O,0,0,9.41,[9.41],"['[""[\'hunt_et_al\']""]']"
1431,N#Cc1cccc(S(N)(=O)=O)c1,CC#N,3118-68-1,3-cyanobenzenesulfonamide,23.23,[23.23],"['[""[\'MeCN_Acids_COSMO-RS_2008_Table.pdf\']""]']"
1432,CCCCC[C@@H]([NH3+])c1ccccc1,O,0,0,8.87,[8.87],"['[""[\'hunt_et_al\']""]']"
1433,COc1ccc([C@@H]2C[C@H]2[NH3+])cc1,O,0,0,8.32,[8.32],"['[""[\'hunt_et_al\']""]']"
1434,Cc1ccccc1C[C@@H](C(=O)O)[NH+]1CCC(CN2CCC(Oc3ccc(Cl)c(Cl)c3)CC2)CC1,O,0,0,9.2,[9.2],"['[""[\'hunt_et_al\']""]']"
1435,CC(C)[NH2+]C[C@H](O)c1cccc(-c2ccccc2)c1,O,0,0,9.49,[9.49],"['[""[\'hunt_et_al\']""]']"
1436,CNc1nc(O)cc[nH+]1,O,0,0,3.9,[3.9],"['[""[\'hunt_et_al\']""]']"
1437,CC(=O)c1cc(C(C)(C)C)c(O)c(C(C)(C)C)c1,O,0,0,8.68,[8.68],"['[""[\'hunt_et_al\']""]']"
1438,CC[C@H](C)c1cc([N+](=O)[O-])cc([N+](=O)[O-])c1O,O,0,0,4.62,[4.62],"['[""[\'hunt_et_al\']""]']"
1439,O=C1NC(=O)C([N+](=O)[O-])C(=O)N1,CS(=O)C,480-68-2,"5-nitro-1,3-diazinane-2,4,6-trione",0.8,[0.8],"['[""[\'Ejoc202001649-sup-00001-misc_information.pdf\']""]']"
1440,CN(C)c1ccc(S(=O)(=O)NC(=O)N2CCC([NH+]3CCC(Oc4ccc(Cl)c(Cl)c4)CC3)CC2)cc1,O,0,0,6.1,[6.1],"['[""[\'hunt_et_al\']""]']"
1441,c1ccc(C[NH+]2CCCC2)nc1,O,0,0,8.56,[8.56],"['[""[\'hunt_et_al\']""]']"
1442,Cc1nc(C(=O)O)c(C)o1,O,0,0,4.17,[4.17],"['[""[\'hunt_et_al\']""]']"
1443,CCOC(=O)c1ccc(O)cc1,O,0,0,8.34,[8.34],"['[""[\'hunt_et_al\']""]']"
1444,Oc1ccc2ccncc2c1,O,0,0,8.9,[8.9],"['[""[\'hunt_et_al\']""]']"
1445,CCCC[NH2+]CCCC,O,-,dibutylazanium,11.25,"[11.25, 11.25]","['[""[\'Bases_pKa_values_MeCN_DMSO_THF_Water.pdf\']""]', '[""[\'hunt_et_al\']""]']"
1446,Clc1ccc2nsnc2c1NC1=[NH+]CCN1,O,0,0,7.52,[7.52],"['[""[\'hunt_et_al\']""]']"
1447,FC(F)(F)CS,O,0,0,7.3,[7.3],"['[""[\'hunt_et_al\']""]']"
1448,O=C(O)C(c1ccccc1)c1ccccc1,O,0,0,3.94,[3.94],"['[""[\'hunt_et_al\']""]']"
1449,COc1cc([NH3+])cc([N+](=O)[O-])c1,O,0,0,2.11,[2.11],"['[""[\'hunt_et_al\']""]']"
1450,[NH3+]c1ccc(Cl)cc1[N+](=O)[O-],CC#N,,(4-chloro-2-nitrophenyl)azanium,3.8,[3.8],"['[""[\'pKa_values_of_nitrogen_heterocycles.pdf\']""]']"
1451,CCC[NH+](CC)CC,CS(=O)C,-,diethyl(propyl)azanium,9.0,[9.0],"['[""[\'Bases_pKa_values_MeCN_DMSO_THF_Water.pdf\']""]']"
1452,O=C(O)CCI,O,0,0,4.09,[4.09],"['[""[\'hunt_et_al\']""]']"