,Solute SMILES,Solvent SMILES,Solute CAS,Solute IUPAC,pKa (avg),pKa (all),Source (all)
2268,[NH3+][C@@H](CC[SH:8])C(=O)[O-],O,0,0,8.7,[8.7],"[""['hunt_et_al']""]"
2269,C1CCC[NH2+:8]CCC1,O,0,0,11.1,[11.1],"[""['hunt_et_al']""]"
2270,c1ccc2c(c1)ccc1[nH+]cccc12,O,,benzo[f]quinolin-4-ium,5.15,[5.15],"[""['pKa_values_of_nitrogen_heterocycles.pdf']""]"
2271,Cc1cc(C#N)cc(C)c1[OH:11],O,0,0,8.27,[8.27],"[""['hunt_et_al']""]"
2272,Nc1nc2nccnc2c[nH+:9]1,O,0,0,4.26,[4.26],"[""['hunt_et_al']""]"
2273,Oc1c(Cl)c(Cl)c(Cl)c(Cl)c1Cl,O,87-86-5,"2,3,4,5,6-pentachlorophenol",4.74,[4.74],"[""['Ejoc202001649-sup-00001-misc_information.pdf']""]"
2274,CC[NH+](CC)CC[NH+:11](CC)CC,O,0,0,6.18,[6.18],"[""['hunt_et_al']""]"
2275,Cc1c(C)c([NH3+:11])c(C)c(C)c1[N+](=O)[O-],O,0,0,2.36,[2.36],"[""['hunt_et_al']""]"
2276,c1ccc2[nH][nH+]cc2c1,O,-,1H-indazol-2-ium,1.25,"[1.25, 1.25]","[""['pKa_values_of_nitrogen_heterocycles.pdf', 'Bases_pKa_values_MeCN_DMSO_THF_Water.pdf']""]"
2277,Oc1ccc(CC[NH3+:9])cc1,O,0,0,10.9,[10.9],"[""['hunt_et_al']""]"
2278,O=C(c1cccc([N+](=O)[O-])c1Cl)[OH:12],O,0,0,2.02,[2.02],"[""['hunt_et_al']""]"
2279,c1cnc[nH+]c1,CC#N,-,pyrimidin-1-ium,8.72,"[8.72, 8.72]","[""['pKa_values_of_nitrogen_heterocycles.pdf', 'Bases_pKa_values_MeCN_DMSO_THF_Water.pdf']""]"
2280,CCOC(=O)C(C#N)c1c(C(F)(F)F)c(C(F)(F)F)c(C(F)(F)F)c(C(F)(F)F)c1C(F)(F)F,C(CCl)Cl,2226486-80-0,,47.8,[47.8],"[""['leito_acids']""]"
2281,NS(=O)(=O)c1cccc([N+](=O)[O-])c1,CC#N,121-52-8,3-nitrobenzenesulfonamide,23.79,"[22.95, 24.63]","[""['MeCN_Acids_COSMO-RS_2008_Table.pdf', 'Ejoc202001649-sup-00001-misc_information.pdf']""]"
2282,O=S(=O)(NS(=O)(=O)C(F)(F)F)c1ccc(Cl)cc1,CC#N,174788-89-7,4-chloro-N-(trifluoromethylsulfonyl)benzenesulfonamide,5.126666666666666,"[5.02, 5.34, 5.02]","[""['leito_acids']"", ""['MeCN_Acids_COSMO-RS_2008_Table.pdf', 'DCE_2011_pKa_Table_MeCN.pdf']""]"
2283,C[C@H]1CCCC(C)(C)[NH2+:9]1,O,0,0,11.21,[11.21],"[""['hunt_et_al']""]"
2284,N#Cc1ccc(C(=O)N2CCC3(CC2)Nc2cccc(F)c2C(N)=[NH+:22]3)cc1,O,0,0,9.0,[9.0],"[""['hunt_et_al']""]"
2285,N#Cc1ccc(Cl)cc1O[C@H](CC[NH3+:18])c1ccccc1,O,0,0,10.3,[10.3],"[""['hunt_et_al']""]"
2286,c1ccc(CC[OH:9])cc1,O,0,0,15.48,[15.48],"[""['hunt_et_al']""]"
2287,N#Cc1c(F)c(F)c(N)c(F)c1F,CC#N,17823-38-0,"4-amino-2,3,5,6-tetrafluorobenzonitrile",28.78,"[28.78, 28.78]","[""['pKa_values_of_acids_in_acetonitrile.pdf', 'Ejoc202001649-sup-00001-misc_information.pdf']""]"
2288,NS(=O)(=O)c1ccccc1,CS(=O)C,98-10-2,benzenesulfonamide,16.1,[16.1],"[""['Ejoc202001649-sup-00001-misc_information.pdf']""]"
2289,COc1cccc([SH:9])c1,O,0,0,6.39,[6.39],"[""['hunt_et_al']""]"
2290,CCO[Si](C)(C)C[NH3+:6],O,0,0,10.18,[10.18],"[""['hunt_et_al']""]"
2291,C1C[NH2+]CCN1,CS(=O)C,8057-14-5,piperazin-1-ium,10.5,[10.5],"[""['Bases_pKa_values_MeCN_DMSO_THF_Water.pdf']""]"
2292,C[C@@]12CC3CC([NH3+:13])(C1)C[C@](C)(C3)C2,O,0,0,10.66,[10.66],"[""['hunt_et_al']""]"
2293,O=S(=O)(N=C(NS(=O)(=O)C(F)(F)F)c1ccc(F)cc1)C(F)(F)F,CC#N,500721-93-7,"4-fluoro-N,N'-bis((trifluoromethyl)sulfonyl)benzimidamide",5.38,"[5.66, 5.33, 5.29, 5.29, 5.33]","[""['MeCN_Acids_COSMO-RS_2008_Table.pdf', 'DCE_2011_pKa_Table_MeCN.pdf', 'pKa_values_of_acids_in_acetonitrile.pdf', 'Ejoc202001649-sup-00001-misc_information.pdf', 'leito_acids']""]"
2294,N#CC(C#N)S(=O)(=O)c1ccc([N+](=O)[O-])cc1,C(CCl)Cl,1207878-53-2,2-((4-nitrophenyl)sulfonyl)malononitrile,39.9,"[39.9, 39.9]","[""['Ejoc202001649-sup-00001-misc_information.pdf', 'leito_acids']""]"
2295,COc1ccc(S(=O)(=O)[NH:27]C(=O)N2CCC([NH+]3CCC(Oc4ccc(Cl)c(Cl)c4)CC3)CC2)cc1,O,0,0,3.6,[3.6],"[""['hunt_et_al']""]"
2296,COc1cc(CC[NH3+:12])cc(OC)c1OC,O,0,0,9.56,[9.56],"[""['hunt_et_al']""]"
2297,C[NH+:10](C)Cc1ccc(F)cc1,O,0,0,8.94,[8.94],"[""['hunt_et_al']""]"
2298,C[NH+:20]1CCC(=C2c3ccccc3CC(=O)c3sccc32)CC1,O,0,0,9.0,[9.0],"[""['hunt_et_al']""]"
2299,CS(=O)(=O)c1ccc([NH3+:8])cc1,O,0,0,1.35,[1.35],"[""['hunt_et_al']""]"
2300,O=C(c1ncc(-c2ccc(Cl)cc2)o1)[OH:14],O,0,0,1.68,[1.68],"[""['hunt_et_al']""]"
2301,CC(C)c1ccc(Br)c(=O)c([OH:12])c1,O,0,0,4.28,[4.28],"[""['hunt_et_al']""]"
2302,O=[N+]([O-])c1cc([N+](=O)[O-])cc([OH:13])c1,O,0,0,6.69,[6.69],"[""['hunt_et_al']""]"
2303,O=C(O)CO,CC#N,79-14-1,2-hydroxyacetic acid,19.3,[19.3],"[""['MeCN_Acids_COSMO-RS_2008_Table.pdf']""]"
2304,Cc1ccc(C)c(C(c2ccccc2)=[NH2+:16])c1,O,0,0,6.79,[6.79],"[""['hunt_et_al']""]"
2305,CC(C)(C)CC(=O)[OH:8],O,0,0,4.79,[4.79],"[""['hunt_et_al']""]"
2306,CC[C@@H](C)C[C@@H](C)[NH3+:8],O,0,0,10.55,[10.55],"[""['hunt_et_al']""]"
2307,COc1ccc(C(=O)NS(=O)(=O)C(F)(F)F)cc1,CC#N,39063-05-3,4-methoxy-N-(trifluoromethylsulfonyl)benzamide,11.6,"[11.6, 11.6, 11.6]","[""['MeCN_Acids_COSMO-RS_2008_Table.pdf', 'Ejoc202001649-sup-00001-misc_information.pdf']"", ""['leito_acids']""]"
2308,O=P(OCc1ccccc1)(OCc1ccccc1)[OH:16],O,0,0,0.7,[0.7],"[""['hunt_et_al']""]"
2309,O=[N+]([O-])c1ccc([OH:10])cc1,O,0,0,7.15,[7.15],"[""['hunt_et_al']""]"
2310,C(#Cc1ccccc1)C[OH:10],O,0,0,13.87,[13.87],"[""['hunt_et_al']""]"
2311,N#CC1c2ccccc2-c2ccccc21,CC#N,1529-40-4,9H-fluorene-9-carbonitrile,21.263333333333332,"[21.36, 20.8, 21.36, 21.35, 21.35, 21.36]","[""['MeCN_Acids_COSMO-RS_2008_Table.pdf', 'MeCN_Acids_COSMO-RS_2008_Table.pdf', 'a_unified_view_to_bronsted_acidity_scales.pdf', 'pKa_values_of_acids_in_acetonitrile.pdf', 'Ejoc202001649-sup-00001-misc_information.pdf', 'leito_acids']""]"
2312,Cc1ccc([C@@H]2CCC[NH2+:12]2)cc1,O,0,0,9.95,[9.95],"[""['hunt_et_al']""]"
2313,COC(=O)[C@@](C)(CC(=O)[OH:19])Cc1ccc([N+](=O)[O-])cc1,O,0,0,4.45,[4.45],"[""['hunt_et_al']""]"
2314,Cc1nc(C(=O)[OH:9])co1,O,0,0,3.59,[3.59],"[""['hunt_et_al']""]"
2315,CS(=O)(=O)[NH:16]C(=O)c1cc(Oc2ccc(C(F)(F)F)cc2Cl)ccc1[N+](=O)[O-],O,0,0,2.83,[2.83],"[""['hunt_et_al']""]"
2316,Fc1c(F)c(F)c(C2c3ccccc3-c3ccccc32)c(F)c1F,CC#N,73482-93-6,"9-(2,3,4,5,6-pentafluorophenyl)-9H-fluorene",28.125,"[28.14, 28.11, 28.11, 28.14]","[""['pKa_values_of_acids_in_acetonitrile.pdf', 'leito_acids']"", ""['MeCN_Acids_COSMO-RS_2008_Table.pdf', 'Ejoc202001649-sup-00001-misc_information.pdf']""]"
2317,c1ccc([OH:7])cc1,O,0,0,9.99,[9.99],"[""['hunt_et_al']""]"
2318,CC[NH+:15](CC)CCC(=O)Cc1ccccc1,O,0,0,9.4,[9.4],"[""['hunt_et_al']""]"
2319,C[P@@H](=O)[OH:3],O,0,0,3.08,[3.08],"[""['hunt_et_al']""]"
2320,CCCCCC[NH2+:13]CCCCCC,O,0,0,11.01,[11.01],"[""['hunt_et_al']""]"
2321,CN(C)C(=N)[NH+](C)C,C1CCOC1,-,"(N,N-dimethylcarbamimidoyl)-dimethylazanium",15.5,"[15.5, 15.5]","[""['pKa_values_of_acids_and_bases_in_MeCN_DCE_DMSO_H2O_THF_C7_DME.pdf', 'Bases_pKa_values_MeCN_DMSO_THF_Water.pdf']""]"
2322,CCn1cc(C(=O)[O-])c(=O)c2cc(F)c(N3CC[NH+:20](C)CC3)cc21,O,0,0,7.55,[7.55],"[""['hunt_et_al']""]"
2323,CCC[NH+:13](CCC)c1ccccc1,O,0,0,5.68,[5.68],"[""['hunt_et_al']""]"
2324,C[C@@]12CC[C@H]3c4ccc([OH:20])cc4CC[C@@H]3[C@@H]1CCC2=O,O,0,0,10.91,[10.91],"[""['hunt_et_al']""]"
2325,C[C@@H](O)C[N@H+:7](C)CCO,O,0,0,8.7,[8.7],"[""['hunt_et_al']""]"
2326,CC(C)(C)[NH3+:5],O,0,0,10.68,[10.68],"[""['hunt_et_al']""]"
2327,Oc1ccc(Cl)cc1Cc1cc(Cl)ccc1[OH:14],O,0,0,7.6,[7.6],"[""['hunt_et_al']""]"
2328,CCC[NH2+]CCC,O,-,dipropylazanium,11.0,[11.0],"[""['Bases_pKa_values_MeCN_DMSO_THF_Water.pdf']""]"
2329,CC[C@H]1C[NH2+:5]1,O,0,0,8.31,[8.31],"[""['hunt_et_al']""]"
2330,O=[N+]([O-])O,C(CCl)Cl,7697-37-2,nitric acid,43.6,[43.6],"[""['leito_acids']""]"
2331,N#CC(c1c(F)c(F)c(F)c(F)c1F)c1c(F)c(F)c2c(F)c(F)c(F)c(F)c2c1F,C(CCl)Cl,64934-68-5,"2-(1,3,4,5,6,7,8-heptafluoronaphthalen-2-yl)-2-(2,3,4,5,6-pentafluorophenyl)acetonitrile",54.4,"[54.4, 54.4]","[""['Ejoc202001649-sup-00001-misc_information.pdf', 'leito_acids']""]"
2332,NCC[NH3+],CC#N,-,2-aminoethylazanium,18.46,[18.46],"[""['Bases_pKa_values_MeCN_DMSO_THF_Water.pdf']""]"
2333,CCOc1ccc([OH:9])cc1,O,0,0,10.3,[10.3],"[""['hunt_et_al']""]"
2334,C[NH+:6]1CC=CC1,O,0,0,9.88,[9.88],"[""['hunt_et_al']""]"
2335,CCCC(=O)[OH:6],O,0,0,4.82,[4.82],"[""['hunt_et_al']""]"
2336,COC(=O)c1ccc[nH+:8]c1N,O,0,0,4.78,[4.78],"[""['hunt_et_al']""]"
2337,O=C(c1ccccc1)[NH:26]S(=O)(=O)N1CCC([NH+]2CCC(Oc3ccc(Cl)c(Cl)c3)CC2)CC1,O,0,0,4.3,[4.3],"[""['hunt_et_al']""]"
2338,O=C1C[C@H]([SH:8])C(=O)N1,O,0,0,6.7,[6.7],"[""['hunt_et_al']""]"
2339,COc1ccc(C[NH3+:10])cc1OC,O,0,0,9.39,[9.39],"[""['hunt_et_al']""]"
2340,N#Cc1cccc(C(=O)[OH:11])c1,O,0,0,3.598,[3.598],"[""['hunt_et_al']""]"
2341,O=C(COc1cccc([N+](=O)[O-])c1)[OH:13],O,0,0,2.95,[2.95],"[""['hunt_et_al']""]"
2342,O=S(=O)(O)c1cccc2ccccc12,CC#N,85-47-2,naphthalene-1-sulfonic acid,7.894,"[7.89, 7.89, 7.9, 7.9, 7.89]","[""['MeCN_Acids_COSMO-RS_2008_Table.pdf', 'DCE_2011_pKa_Table_MeCN.pdf', 'pKa_values_of_acids_in_acetonitrile.pdf', 'Ejoc202001649-sup-00001-misc_information.pdf', 'leito_acids']""]"
2343,CCCCC[NH2+:11]CCCCC,O,0,0,11.16,[11.16],"[""['hunt_et_al']""]"
2344,c1ccc2c([OH:11])cnnc2c1,O,0,0,9.3,[9.3],"[""['hunt_et_al']""]"
2345,C[n+]1cccc2cccc([OH:12])c21,O,0,0,6.78,[6.78],"[""['hunt_et_al']""]"
2346,Clc1ccc([OH:7])c(Cl)c1,O,0,0,7.892,[7.892],"[""['hunt_et_al']""]"
2347,Cc1ccc(OP(=O)(Oc2ccc(C)cc2)[OH:16])cc1,O,0,0,0.4,[0.4],"[""['hunt_et_al']""]"
2348,CC[NH+:5](C)C,O,0,0,10.2,[10.2],"[""['hunt_et_al']""]"
2349,CC(C)(C)c1ccc(O)cc1,CC#N,98-54-4,4-tert-butylphenol,27.48,[27.48],"[""['MeCN_Acids_COSMO-RS_2008_Table.pdf']""]"
2350,I,C(CCl)Cl,10034-85-2,iodane,37.7,"[37.7, 37.7, 37.7]","[""['pKa_values_of_acids_and_bases_in_MeCN_DCE_DMSO_H2O_THF_C7_DME.pdf', 'Ejoc202001649-sup-00001-misc_information.pdf', 'leito_acids']""]"
2351,O=[N+]([O-])C1=CN=C[NH2+]1,CC#N,,5-nitro-1H-imidazol-3-ium,6.34,[6.34],"[""['pKa_values_of_nitrogen_heterocycles.pdf']""]"
2352,C[NH+:10](C)c1ccc(C(F)(F)F)cc1,O,0,0,2.67,[2.67],"[""['hunt_et_al']""]"
2353,CCCC[P@@H](=O)[OH:6],O,0,0,3.41,[3.41],"[""['hunt_et_al']""]"
2354,c1ccc2c(c1)CCC[NH2+:10]2,O,0,0,5.03,[5.03],"[""['hunt_et_al']""]"
2355,Clc1cccc(C(c2ccccc2)=[NH2+:14])c1,O,0,0,5.69,[5.69],"[""['hunt_et_al']""]"
2356,O=Cc1ccncc1[OH:9],O,0,0,6.77,[6.77],"[""['hunt_et_al']""]"
2357,C[C@@H](O)C[NH2+:6]CCO,O,0,0,9.4,[9.4],"[""['hunt_et_al']""]"
2358,O=S(=O)(O)c1ccccc1,CC#N,98-11-3,benzenesulfonic acid,8.2,"[8.2, 8.2]","[""['pKa_values_of_acids_in_acetonitrile.pdf', 'Ejoc202001649-sup-00001-misc_information.pdf']""]"
2359,CCOC(=O)C(C#N)c1c(F)c(F)c(F)c(F)c1F,CS(=O)C,2340-87-6,"ethyl 2-cyano-2-(2,3,4,5,6-pentafluorophenyl)acetate",4.9,"[4.7, 5.1]","[""['a_unified_view_to_bronsted_acidity_scales.pdf', 'Ejoc202001649-sup-00001-misc_information.pdf']""]"
2360,Cl,CN(C)C=O,7647-01-0,chlorane,2.36,[2.36],"[""['Ejoc202001649-sup-00001-misc_information.pdf']""]"
2361,CC(C)(C)NC(=O)[C@@H]1C[C@@H]2CCCC[C@@H]2C[N@H+:40]1C[C@@H](O)[C@H](Cc1ccccc1)NC(=O)[C@H](CC(N)=O)NC(=O)c1ccc2ccccc2n1,O,0,0,7.14,[7.14],"[""['hunt_et_al']""]"
2362,O=S1(=O)NS(=O)(=O)c2c(-c3cc(C(F)(F)F)cc(C(F)(F)F)c3)cc3ccccc3c2C2=C3C=CC=CC3CC(c3cc(C(F)(F)F)cc(C(F)(F)F)c3)=C21,CC#N,1242421-77-7,,8.4,[8.4],"[""['leito_acids']""]"
2363,O=P(Oc1ccc2ccccc2c1)(Oc1ccc2ccccc2c1)[OH:22],O,0,0,0.74,[0.74],"[""['hunt_et_al']""]"
2364,CCCC[NH2+:15]C[C@H](O)c1ccc(OC)c(OC)c1,O,0,0,9.56,[9.56],"[""['hunt_et_al']""]"
2365,CC(C)(C)c1ccc([OH:11])cc1,O,0,0,10.23,[10.23],"[""['hunt_et_al']""]"
2366,COc1ccc(C[NH2+:24]C(CC2CCCCC2)CC2CCCCC2)cc1,O,0,0,7.8,[7.8],"[""['hunt_et_al']""]"
2367,CN1CC[NH+](C)CC1,CC#N,-,"1,4-dimethylpiperazin-1-ium",17.38,[17.38],"[""['Bases_pKa_values_MeCN_DMSO_THF_Water.pdf']""]"
2368,Oc1c(F)c(F)c(F)c(F)c1F,CC#N,771-61-9,"2,3,4,5,6-pentafluorophenol",20.105,"[20.11, 20.1, 20.1, 20.11]","[""['MeCN_Acids_COSMO-RS_2008_Table.pdf', 'pKa_values_of_acids_in_acetonitrile.pdf', 'Ejoc202001649-sup-00001-misc_information.pdf', 'leito_acids']""]"
2369,C[C@H](O)CC(=O)[OH:6],O,0,0,4.7,[4.7],"[""['hunt_et_al']""]"
2370,CCOP(=O)(C[NH+:10](CC)CC)OCC,O,0,0,6.4,[6.4],"[""['hunt_et_al']""]"
2371,O=C(C(CO)(CO)CO)[OH:7],O,0,0,4.46,[4.46],"[""['hunt_et_al']""]"
2372,Cc1cccc([OH:9])c1C,O,0,0,10.5,[10.5],"[""['hunt_et_al']""]"
2373,O=S(=O)(NS(=O)(=O)C(F)(F)F)C(F)(F)F,C(CCl)Cl,82113-65-3,"1,1,1-trifluoro-N-(trifluoromethylsulfonyl)methanesulfonamide",33.0,[33.0],"[""['leito_acids']""]"
2374,CCOc1ccccc1[OH:9],O,0,0,10.11,[10.11],"[""['hunt_et_al']""]"
2375,N#CC(C#N)c1ccc([N+](=O)[O-])cc1,CC#N,7077-65-8,2-(4-nitrophenyl)propanedinitrile,11.61,"[11.61, 11.61, 11.61, 11.61]","[""['MeCN_Acids_COSMO-RS_2008_Table.pdf', 'pKa_values_of_acids_in_acetonitrile.pdf', 'Ejoc202001649-sup-00001-misc_information.pdf', 'leito_acids']""]"
2376,O=C(Nc1ccc(Cl)cc1Cl)C1(C(=O)[OH:15])CC1,O,0,0,3.5,[3.5],"[""['hunt_et_al']""]"
2377,CC[N@@H+:9]1CCCC[C@H]1C,O,0,0,10.66,[10.66],"[""['hunt_et_al']""]"
2378,CC(C)Oc1cccc(C(=O)[OH:12])c1,O,0,0,4.15,[4.15],"[""['hunt_et_al']""]"
2379,C=CC[NH+:9]1CCCCC1,O,0,0,9.65,[9.65],"[""['hunt_et_al']""]"
2380,O=C(c1ccc2ncccc2c1)[OH:13],O,0,0,0.1,[0.1],"[""['hunt_et_al']""]"
2381,O=C(O)c1ccc[nH+:7]c1,O,0,0,4.8,[4.8],"[""['hunt_et_al']""]"
2382,C[NH2+:10]CCc1ccc(O)cc1,O,0,0,9.36,[9.36],"[""['hunt_et_al']""]"
2383,COc1c(N2C[C@@H]3CCC[NH2+:22][C@@H]3C2)c(F)cc2c(=O)c(C(=O)[O-])cn(C3CC3)c12,O,0,0,9.51,[9.51],"[""['hunt_et_al']""]"
2384,CC(C)c1cccc(=O)c([OH:12])c1,O,0,0,7.21,[7.21],"[""['hunt_et_al']""]"
2385,CCC1(c2ccccc2)C(=O)NC(=O)[NH:13]C1=O,O,0,0,7.5,[7.5],"[""['hunt_et_al']""]"
2386,O=C(Cc1c(Cl)ccc(Cl)c1Cl)[OH:10],O,0,0,3.7,[3.7],"[""['hunt_et_al']""]"
2387,CC(C)(C)S[NH2+:11]c1ccccc1,O,0,0,3.44,[3.44],"[""['hunt_et_al']""]"
2388,CCC[NH+](CCC)CCC,CS(=O)C,-,tripropylazanium,10.7,[10.7],"[""['Bases_pKa_values_MeCN_DMSO_THF_Water.pdf']""]"
2389,CCCCC[C@@H](C)[NH2+:9]C,O,0,0,10.82,[10.82],"[""['hunt_et_al']""]"
2390,CC(C)(C)c1cc(C(C)(C)C)c([OH:19])c(C(C)(C)C)c1,O,0,0,12.19,[12.19],"[""['hunt_et_al']""]"
2391,Cc1ccccc1S(=O)(=O)[NH:27]C(=O)N1CCC([NH+]2CCC(Oc3ccc(Cl)c(Cl)c3)CC2)CC1,O,0,0,3.4,[3.4],"[""['hunt_et_al']""]"
2392,COc1cccc(C[NH+:11](C)C)c1,O,0,0,9.04,[9.04],"[""['hunt_et_al']""]"
2393,CC[C@H](CC[NH2+:15]C)Oc1cc(Cl)ccc1C#N,O,0,0,10.1,[10.1],"[""['hunt_et_al']""]"
2394,ClC(Cl)(Cl)CCCC[NH3+:6],O,0,0,10.12,[10.12],"[""['hunt_et_al']""]"
2395,O=[N+]([O-])c1cc([NH3+:7])ccc1Cl,O,0,0,1.9,[1.9],"[""['hunt_et_al']""]"
2396,c1cnc2c(c1)ccc1ccc[nH+]c12,O,-,"1,10-phenanthrolin-10-ium",5.12,"[5.12, 5.12]","[""['pKa_values_of_nitrogen_heterocycles.pdf', 'Bases_pKa_values_MeCN_DMSO_THF_Water.pdf']""]"
2397,O=C(O)c1c(Cl)cccc1Cl,CC#N,50-30-6,"2,6-dichlorobenzoic acid",17.6,[17.6],"[""['MeCN_Acids_COSMO-RS_2008_Table.pdf']""]"
2398,NS(=O)(=O)c1ccc(F)cc1,O,402-46-0,4-fluorobenzenesulfonamide,10.02,[10.02],"[""['Ejoc202001649-sup-00001-misc_information.pdf']""]"
2399,O[C@@H](C[NH3+:9])c1ccccc1,O,0,0,8.79,[8.79],"[""['hunt_et_al']""]"
2400,C[C@@H](CN1c2ccccc2CCc2ccccc21)C[NH+:22](C)C,O,0,0,9.4,[9.4],"[""['hunt_et_al']""]"
2401,C[NH+:21](C)CCCN1c2ccccc2CCc2ccc(Cl)cc21,O,0,0,9.4,[9.4],"[""['hunt_et_al']""]"
2402,N[C@@H](CCC(=O)N[C@@H](C[SH:20])C(=O)NCC(=O)O)C(=O)O,O,0,0,8.56,[8.56],"[""['hunt_et_al']""]"
2403,Cc1ccccc1[NH2+:14]C1CCCCC1,O,0,0,5.34,[5.34],"[""['hunt_et_al']""]"
2404,c1cc[nH+]nc1,O,-,pyridazin-1-ium,2.33,"[2.33, 2.33]","[""['pKa_values_of_nitrogen_heterocycles.pdf', 'Bases_pKa_values_MeCN_DMSO_THF_Water.pdf']""]"
2405,Brc1ccccc1[NH3+:7],O,0,0,2.53,[2.53],"[""['hunt_et_al']""]"
2406,CC(C)c1nc2ccc(-c3ccc(F)cc3)cc2c(=O)n1C[C@H]1CCC[N@@H+:29](C(C)C)C1,O,0,0,9.91,[9.91],"[""['hunt_et_al']""]"
2407,COC(=O)c1ccccc1[OH:10],O,0,0,9.8,[9.8],"[""['hunt_et_al']""]"
2408,OCC[NH+:12](CCO)Cc1ccc(F)cc1,O,0,0,6.8,[6.8],"[""['hunt_et_al']""]"
2409,COCC[NH3+:4],O,0,0,9.61,[9.61],"[""['hunt_et_al']""]"
2410,O=C([C@H](O)c1cccc(F)c1)[OH:10],O,0,0,4.24,[4.24],"[""['hunt_et_al']""]"
2411,[NH3+]c1ccc([N+](=O)[O-])cc1Cl,CC#N,-,(2-chloro-4-nitrophenyl)azanium,3.66,[3.66],"[""['pKa_values_of_nitrogen_heterocycles.pdf']""]"
2412,Cc1ccc([NH2+:17][C@H]2CCc3ccccc32)cc1,O,0,0,1.8,[1.8],"[""['hunt_et_al']""]"
2413,O[C@@H]1c2ccccc2C[C@H]1[NH3+:10],O,0,0,8.13,[8.13],"[""['hunt_et_al']""]"
2414,O=[N+]([O-])c1cc([N+](=O)[O-])c(O)c([N+](=O)[O-])c1,C(CCl)Cl,88-89-1,"2,4,6-trinitrophenol",44.86666666666667,"[44.6, 45.0, 45.0]","[""['pKa_values_of_acids_and_bases_in_MeCN_DCE_DMSO_H2O_THF_C7_DME.pdf', 'Ejoc202001649-sup-00001-misc_information.pdf', 'leito_acids']""]"
2415,O=C1O[C@H]([C@@H](O)CO)C(O)=C1[OH:9],O,0,0,4.17,[4.17],"[""['hunt_et_al']""]"
2416,N#CC(c1c(F)c(F)nc(F)c1F)c1c(F)c(F)nc(F)c1F,CC#N,64934-72-1,"2,2-bis(2,3,5,6-tetrafluoropyridin-4-yl)acetonitrile",13.466666666666669,"[13.47, 13.47, 13.46]","[""['a_unified_view_to_bronsted_acidity_scales.pdf', 'pKa_values_of_acids_in_acetonitrile.pdf', 'leito_acids']""]"
2417,Cc1cccc(C)c1[NH2+:10]C,O,0,0,6.12,[6.12],"[""['hunt_et_al']""]"
2418,c1ccc2nc[nH+]cc2c1,O,,quinazolin-3-ium,1.95,[1.95],"[""['pKa_values_of_nitrogen_heterocycles.pdf']""]"
2419,CCCC[NH+](CCCC)CCCC,O,-,tributylazanium,10.89,[10.89],"[""['Bases_pKa_values_MeCN_DMSO_THF_Water.pdf']""]"
2420,CCC[C@@H](c1ccccc1)[NH3+:11],O,0,0,9.45,[9.45],"[""['hunt_et_al']""]"
2421,O=[N+]([O-])c1cccc(C[NH3+:8])c1,O,0,0,8.65,[8.65],"[""['hunt_et_al']""]"
2422,O=C(NCCc1ccccc1Cl)c1cc(-n2ncc(=O)[nH:20]c2=O)ccc1Cl,O,0,0,6.1,[6.1],"[""['hunt_et_al']""]"
2423,O=[N+]([O-])c1ccc(Br)c([NH3+:7])c1,O,0,0,0.52,[0.52],"[""['hunt_et_al']""]"
2424,Cc1nn(-c2ccc(F)cc2)c([NH:27]S(=O)(=O)c2ccc(C(F)(F)F)cc2)c1C(=O)N[C@@H](C)C(C)(C)C,O,0,0,3.4,[3.4],"[""['hunt_et_al']""]"
2425,Cc1ccnc([OH:8])n1,O,0,0,9.9,[9.9],"[""['hunt_et_al']""]"
2426,C[NH+:11](C)CCc1cccnc1,O,0,0,8.86,[8.86],"[""['hunt_et_al']""]"
2427,C[N+](C)(C)CCc1ccccc1[OH:13],O,0,0,9.57,[9.57],"[""['hunt_et_al']""]"
2428,Fc1c(F)c(F)c([NH3+:7])c(F)c1F,O,0,0,-0.28,[-0.28],"[""['hunt_et_al']""]"
2429,O=[N+]([O-])c1cc(Cl)c(O)c([N+](=O)[O-])c1,CC#N,946-31-6,"2-chloro-4,6-dinitrophenol",14.23,"[14.23, 14.23]","[""['pKa_values_of_acids_in_acetonitrile.pdf', 'Ejoc202001649-sup-00001-misc_information.pdf']""]"
2430,Cn1c(=O)c2c(ncn2CC[NH+:16](C)C)n(C)c1=O,O,0,0,7.5,[7.5],"[""['hunt_et_al']""]"
2431,C[NH+](C)CC[NH+:7](C)C,O,0,0,5.7,[5.7],"[""['hunt_et_al']""]"
2432,O=C(CN1C2=[NH+:18]CCN2c2ccccc21)c1ccc(Cl)cc1,O,0,0,9.1,[9.1],"[""['hunt_et_al']""]"
2433,CC[NH3+],O,16999-99-8,ethylazanium,10.63,[10.63],"[""['Bases_pKa_values_MeCN_DMSO_THF_Water.pdf']""]"
2434,C[NH+](C)CCN(Cc1ccccc1)c1cccc[nH+:17]1,O,0,0,3.92,[3.92],"[""['hunt_et_al']""]"
2435,C[C@H]1CN(c2c(F)c(N)c3c(=O)c(C(=O)[OH:26])cn(C4CC4)c3c2F)C[C@@H](C)[NH2+]1,O,0,0,6.31,[6.31],"[""['hunt_et_al']""]"
2436,O=[N+]([O-])C1=NC=C[NH2+]1,O,,2-nitro-1H-imidazol-1-ium,-0.81,[-0.81],"[""['pKa_values_of_nitrogen_heterocycles.pdf']""]"
2437,O=C(O)c1ccc(Br)cc1,CC#N,586-76-5,4-bromobenzoic acid,20.3,[20.3],"[""['MeCN_Acids_COSMO-RS_2008_Table.pdf']""]"
2438,c1ccc2c(c1)ccc1[nH+]cccc12,CC#N,,benzo[f]quinolin-4-ium,11.96,[11.96],"[""['pKa_values_of_nitrogen_heterocycles.pdf']""]"
2439,C[C@@H](CCCC(=O)[OH:14])c1ccccc1,O,0,0,4.8,[4.8],"[""['hunt_et_al']""]"
2440,Cc1ccc(S(=O)(=O)[NH:14]c2ccccc2)cc1,O,0,0,8.46,[8.46],"[""['hunt_et_al']""]"
2441,O=[N+]([O-])c1ccc([NH3+:7])cc1,O,0,0,1.0,[1.0],"[""['hunt_et_al']""]"
2442,COC(=O)CCC(C(=O)[OH:21])(c1ccccc1)c1ccccc1,O,0,0,4.0,[4.0],"[""['hunt_et_al']""]"
2443,O[C@@H]1CCCC[C@H]1[NH3+:7],O,0,0,9.53,[9.53],"[""['hunt_et_al']""]"
2444,Clc1cc([NH3+:11])cc2ccccc12,O,0,0,3.38,[3.38],"[""['hunt_et_al']""]"
2445,CCCCCCCCCCC[NH3+:12],O,0,0,10.63,[10.63],"[""['hunt_et_al']""]"
2446,CCC1=[NH+:8][C@@H](CC)CS1,O,0,0,5.36,[5.36],"[""['hunt_et_al']""]"
2447,C[n+]1cc([OH:12])cc2ccccc21,O,0,0,5.39,[5.39],"[""['hunt_et_al']""]"
2448,c1ccc2[nH][nH+]cc2c1,CC#N,-,1H-indazol-2-ium,7.61,"[7.61, 7.61]","[""['pKa_values_of_nitrogen_heterocycles.pdf', 'Bases_pKa_values_MeCN_DMSO_THF_Water.pdf']""]"
2449,CC[NH+](CC)CC,O,17440-81-2,triethylazanium,10.675,"[10.7, 10.65]","[""['pKa_values_of_acids_and_bases_in_MeCN_DCE_DMSO_H2O_THF_C7_DME.pdf', 'Bases_pKa_values_MeCN_DMSO_THF_Water.pdf']""]"
2450,O=C(N1CCC(N2CCC(Oc3ccc(Cl)c(Cl)c3)CC2)CC1)[NH:26]S(=O)(=O)c1ccc(F)cc1,O,0,0,3.0,[3.0],"[""['hunt_et_al']""]"
2451,CCOC(=O)C(CC[NH+:21](C)C)(c1ccccc1)c1ccccc1,O,0,0,9.87,[9.87],"[""['hunt_et_al']""]"
2452,ClC(Cl)(Cl)C(Cl)(Cl)C[NH3+:4],O,0,0,6.58,[6.58],"[""['hunt_et_al']""]"
2453,CC(C)(C[NH3+:11])c1ccccc1,O,0,0,10.03,[10.03],"[""['hunt_et_al']""]"
2454,c1ccc2c(c1)Cc1cc([NH3+:14])ccc1-2,O,0,0,4.64,[4.64],"[""['hunt_et_al']""]"
2455,Cc1cc(Br)ccc1[NH3+:8],O,0,0,3.58,[3.58],"[""['hunt_et_al']""]"
2456,C=CCc1c(C)nc(NC)[nH+:11]c1C,O,0,0,5.31,[5.31],"[""['hunt_et_al']""]"