,Solute SMILES,Solvent SMILES,Solute CAS,Solute IUPAC,pKa (avg),pKa (all),Source (all)
2078,c1c[nH+]ccn1,CS(=O)C,-,pyrazin-1-ium,-0.2,[-0.2],"[""['Bases_pKa_values_MeCN_DMSO_THF_Water.pdf']""]"
2079,c1ccc2c(c1)CC[C@@H]([NH3+:11])C2,O,0,0,9.93,[9.93],"[""['hunt_et_al']""]"
2080,CCCc1ccc([C@H](C)[NH3+:12])cc1,O,0,0,9.45,[9.45],"[""['hunt_et_al']""]"
2081,C[C@H](CCC(=O)[OH:26])[C@H]1CC[C@H]2[C@H]3[C@H](C[C@H](O)[C@@]21C)[C@@]1(C)CC[C@@H](O)C[C@H]1C[C@H]3O,O,0,0,4.98,[4.98],"[""['hunt_et_al']""]"
2082,O=[N+]([O-])c1ccc(O)c([N+](=O)[O-])c1,O,51-28-5,"2,4-dinitrophenol",4.1,"[4.1, 4.1]","[""['pKa_values_of_acids_and_bases_in_MeCN_DCE_DMSO_H2O_THF_C7_DME.pdf', 'Ejoc202001649-sup-00001-misc_information.pdf']""]"
2083,COc1ccc([P@@H](=O)[OH:9])cc1,O,0,0,2.35,[2.35],"[""['hunt_et_al']""]"
2084,CO/N=C(/C(=O)N[C@@H]1C(=O)N2C(C(=O)[OH:26])=C(COC(C)=O)CS[C@H]12)c1csc(N)n1,O,0,0,3.35,[3.35],"[""['hunt_et_al']""]"
2085,CC(C)=C1CCC[NH2+:9]C1,O,0,0,10.47,[10.47],"[""['hunt_et_al']""]"
2086,c1ccc2[nH+][nH]nc2c1,CC#N,-,2H-benzotriazol-1-ium,6.885,"[6.88, 6.89]","[""['pKa_values_of_nitrogen_heterocycles.pdf', 'Bases_pKa_values_MeCN_DMSO_THF_Water.pdf']""]"
2087,N#CC(c1c(F)c(F)cc(F)c1F)c1c(F)c(F)c(F)c(F)c1F,CC#N,42254-09-1,"2-(2,3,4,5,6-pentafluorophenyl)-2-(2,3,5,6-tetrafluorophenyl)acetonitrile",21.106,"[21.11, 21.1, 21.11, 21.11, 21.1]","[""['a_unified_view_to_bronsted_acidity_scales.pdf', 'pKa_values_of_acids_in_acetonitrile.pdf', 'leito_acids']"", ""['MeCN_Acids_COSMO-RS_2008_Table.pdf', 'Ejoc202001649-sup-00001-misc_information.pdf']""]"
2088,CCCC[NH+:10]1CCCCC1,O,0,0,10.43,[10.43],"[""['hunt_et_al']""]"
2089,Oc1ccc(Cl)cc1,CC#N,106-48-9,4-chlorophenol,25.44,[25.44],"[""['MeCN_Acids_COSMO-RS_2008_Table.pdf']""]"
2090,Oc1c(Br)c(Br)c(Br)c(Br)c1Br,O,608-71-9,"2,3,4,5,6-pentabromophenol",4.82,[4.82],"[""['Ejoc202001649-sup-00001-misc_information.pdf']""]"
2091,NCCC[NH3+],CS(=O)C,-,3-aminopropylazanium,12.3,[12.3],"[""['Bases_pKa_values_MeCN_DMSO_THF_Water.pdf']""]"
2092,Cc1ccc(C[NH+:11](C)C)cc1,O,0,0,9.22,[9.22],"[""['hunt_et_al']""]"
2093,O=P1(O)Oc2c(-c3ccc(F)cc3)cc3ccccc3c2-c2c(c(C3C=CC(F)=CC3)cc3ccccc23)O1,CC#N,915038-14-1,-,12.48,"[12.46, 12.5]","[""['Ejoc202001649-sup-00001-misc_information.pdf', 'leito_acids']""]"
2094,COc1nc(C)cc([OH:9])n1,O,0,0,8.5,[8.5],"[""['hunt_et_al']""]"
2095,C[NH+:3](C)Cl,O,0,0,0.46,[0.46],"[""['hunt_et_al']""]"
2096,C[NH3+],CC#N,17000-00-9,methylazanium,18.37,[18.37],"[""['Bases_pKa_values_MeCN_DMSO_THF_Water.pdf']""]"
2097,c1ccc(C(c2ccccc2)=[NH2+:14])cc1,O,0,0,7.18,[7.18],"[""['hunt_et_al']""]"
2098,CC[NH+:11](CC)CCCCC#N,O,0,0,10.08,[10.08],"[""['hunt_et_al']""]"
2099,O=[N+]([O-])c1ccc(O)cc1Cl,CC#N,491-11-2,3-chloro-4-nitrophenol,19.9,[19.9],"[""['MeCN_Acids_COSMO-RS_2008_Table.pdf']""]"
2100,O=Cc1ccccc1[OH:9],O,0,0,8.34,[8.34],"[""['hunt_et_al']""]"
2101,CC(C)(C)[NH+:9]1CCCC1,O,0,0,11.13,[11.13],"[""['hunt_et_al']""]"
2102,Cc1ccccc1[NH2+:9]C,O,0,0,4.62,[4.62],"[""['hunt_et_al']""]"
2103,N#Cc1ccc(C[C@@H](C(=O)[O-])[NH+:30]2CCC(CN3CCC(Oc4ccc(Cl)c(Cl)c4)CC3)CC2)cc1,O,0,0,8.9,[8.9],"[""['hunt_et_al']""]"
2104,COc1ccc(C(c2ccccc2)=[NH2+:16])c(OC)c1,O,0,0,8.3,[8.3],"[""['hunt_et_al']""]"
2105,C1C[NH2+]CCN1,C1CCOC1,8057-14-5,piperazin-1-ium,14.2,[14.2],"[""['Bases_pKa_values_MeCN_DMSO_THF_Water.pdf']""]"
2106,COc1ccc(/C=C/C(=O)[OH:12])cc1,O,0,0,4.54,[4.54],"[""['hunt_et_al']""]"
2107,CC[NH+:22](CC)CCCCC(c1ccccc1)c1ccccc1,O,0,0,10.1,[10.1],"[""['hunt_et_al']""]"
2108,CCOC(=O)c1cc([OH:15])cc2ccccc12,O,0,0,8.89,[8.89],"[""['hunt_et_al']""]"
2109,C=C(C)CC(=O)O[C@@H](C)[NH+:13]1CCCCC1,O,0,0,8.37,[8.37],"[""['hunt_et_al']""]"
2110,Cc1cc([OH:9])cc(C)c1Cl,O,0,0,9.7,[9.7],"[""['hunt_et_al']""]"
2111,Fc1ccc(C[NH3+:8])cc1,O,0,0,9.3,[9.3],"[""['hunt_et_al']""]"
2112,CCN(CC)C(=O)c1ccc[nH+:11]c1,O,0,0,3.5,[3.5],"[""['hunt_et_al']""]"
2113,O=C1O[C@H]([C@@H](O)CO)C([OH:10])=C1[O-],O,0,0,11.57,[11.57],"[""['hunt_et_al']""]"
2114,c1cnc[nH+]c1,O,-,pyrimidin-1-ium,1.3,"[1.3, 1.3]","[""['pKa_values_of_nitrogen_heterocycles.pdf', 'Bases_pKa_values_MeCN_DMSO_THF_Water.pdf']""]"
2115,NS(=O)(=O)c1cccc([N+](=O)[O-])c1,O,121-52-8,3-nitrobenzenesulfonamide,9.34,[9.34],"[""['Ejoc202001649-sup-00001-misc_information.pdf']""]"
2116,C[NH+:18](C)CCO[C@@H](c1ccccc1)c1ccc(Br)cc1,O,0,0,8.64,[8.64],"[""['hunt_et_al']""]"
2117,O=C1c2ccccc2C(=O)N1[OH:12],O,0,0,6.5,[6.5],"[""['hunt_et_al']""]"
2118,CC[NH+:12](CC)Cc1ccccc1,O,0,0,9.44,[9.44],"[""['hunt_et_al']""]"
2119,Oc1cccc(C(c2ccccc2)=[NH2+:14])c1,O,0,0,5.08,[5.08],"[""['hunt_et_al']""]"
2120,O=C([C@H]1CCCC[C@@H]1O)[OH:9],O,0,0,4.34,[4.34],"[""['hunt_et_al']""]"
2121,CC(=O)[NH:10]S(=O)(=O)c1ccc(N)cc1,O,0,0,5.25,[5.25],"[""['hunt_et_al']""]"
2122,CC[C@H](C(=O)OC)[NH3+:6],O,0,0,7.64,[7.64],"[""['hunt_et_al']""]"
2123,COC(=O)CC(C(=O)[OH:20])(c1ccccc1)c1ccccc1,O,0,0,3.899,[3.899],"[""['hunt_et_al']""]"
2124,Cc1ccc(C)c([NH3+:9])c1,O,0,0,4.53,[4.53],"[""['hunt_et_al']""]"
2125,COc1cc(OC)nc(Sc2cccc(Cl)c2C(=O)[OH:17])n1,O,0,0,2.34,[2.34],"[""['hunt_et_al']""]"
2126,O=C1NC(=O)C([N+](=O)[O-])C(=O)N1,CC#N,480-68-2,"5-nitro-1,3-diazinane-2,4,6-trione",10.72,"[10.72, 10.72]","[""['pKa_values_of_acids_in_acetonitrile.pdf', 'Ejoc202001649-sup-00001-misc_information.pdf']""]"
2127,N#CC(C#N)c1c(F)c(F)c2c(F)c(F)c(F)c(F)c2c1F,C(CCl)Cl,62325-35-3,"2-(1,3,4,5,6,7,8-heptafluoronaphthalen-2-yl)propanedinitrile",46.3,"[46.3, 46.3]","[""['Ejoc202001649-sup-00001-misc_information.pdf', 'leito_acids']""]"
2128,COC(=O)C[C@](C)(Cc1ccc([N+](=O)[O-])cc1)C(=O)[OH:19],O,0,0,4.4,[4.4],"[""['hunt_et_al']""]"
2129,c1ccc(C[NH3+:8])cc1,O,0,0,9.62,[9.62],"[""['hunt_et_al']""]"
2130,C[C@H]1CC[C@@H]2CCCC[C@H]2[NH2+:11]1,O,0,0,10.91,[10.91],"[""['hunt_et_al']""]"
2131,CC(C)N1C(=O)c2ccccc2[NH:11]S1(=O)=O,O,0,0,3.3,[3.3],"[""['hunt_et_al']""]"
2132,C[NH+:17](C)CCN(Cc1ccsc1)c1ccccn1,O,0,0,8.9,[8.9],"[""['hunt_et_al']""]"
2133,COc1cc(OC)nc(NC(=O)[NH:20]S(=O)(=O)c2ncccc2C(=O)N(C)C)n1,O,0,0,4.6,[4.6],"[""['hunt_et_al']""]"
2134,CCC[NH+](CC)CC,CC#N,-,diethyl(propyl)azanium,18.2,[18.2],"[""['Bases_pKa_values_MeCN_DMSO_THF_Water.pdf']""]"
2135,Cc1ccc(C[NH+:13](CCO)CCO)cc1,O,0,0,7.2,[7.2],"[""['hunt_et_al']""]"
2136,c1ccc([C@H]2CCCC[NH2+:12]2)nc1,O,0,0,9.1,[9.1],"[""['hunt_et_al']""]"
2137,CCOC(=O)N1CCC2(CC1)Nc1ccsc1C(N)=[NH+:14]2,O,0,0,10.47,[10.47],"[""['hunt_et_al']""]"
2138,O=[N+]([O-])c1ccc([NH3+:11])c2ccccc12,O,0,0,0.54,[0.54],"[""['hunt_et_al']""]"
2139,CC[C@H](O)C[N@H+:9](CC)CCO,O,0,0,9.1,[9.1],"[""['hunt_et_al']""]"
2140,CN(C)c1c(F)c(F)c(Nc2c(F)c(F)c(F)c(F)c2F)c(F)c1F,CC#N,80588-34-7,"2,3,5,6-tetrafluoro-N1,N1-dimethyl-N4-(perfluorophenyl)benzene-1,4-diamine",25.125,"[25.12, 25.13, 25.13, 25.12]","[""['MeCN_Acids_COSMO-RS_2008_Table.pdf', 'pKa_values_of_acids_in_acetonitrile.pdf', 'Ejoc202001649-sup-00001-misc_information.pdf', 'leito_acids']""]"
2141,O=S(=O)(NS(=O)(=O)c1ccccc1)c1ccccc1,CC#N,2618-96-4,N-(benzenesulfonyl)benzenesulfonamide,11.343333333333334,"[11.34, 11.35, 11.34]","[""['MeCN_Acids_COSMO-RS_2008_Table.pdf', 'Ejoc202001649-sup-00001-misc_information.pdf', 'leito_acids']""]"
2142,CCn1cc(C(=O)[OH:22])c(=O)c2cc(F)c(N3CCNCC3)nc21,O,0,0,6.2,[6.2],"[""['hunt_et_al']""]"
2143,Cc1cccc([NH3+:9])c1C,O,0,0,4.7,[4.7],"[""['hunt_et_al']""]"
2144,CCOC(=O)C(C#N)c1c(F)c(F)nc(F)c1F,C(CCl)Cl,55810-61-2,"ethyl 2-cyano-2-(2,3,5,6-tetrafluoropyridin-4-yl)acetate",49.4,"[49.4, 49.4]","[""['leito_acids']"", ""['Ejoc202001649-sup-00001-misc_information.pdf']""]"
2145,O=C(O)CCl,CC#N,79-11-8,2-chloroacetic acid,18.8,[18.8],"[""['MeCN_Acids_COSMO-RS_2008_Table.pdf']""]"
2146,C[C@H](CO)Nc1nc(SCc2cccc(F)c2F)nc2nc([NH:21]S(C)(=O)=O)sc12,O,0,0,4.7,[4.7],"[""['hunt_et_al']""]"
2147,CC(C)(C(=O)O)C(=O)[OH:8],O,0,0,3.15,[3.15],"[""['hunt_et_al']""]"
2148,CC1=C(C)C(C)(C)[NH2+:11]C1(C)C,O,0,0,10.5,[10.5],"[""['hunt_et_al']""]"
2149,Cc1nc(N)[nH+:8]c(C)c1C(N)=O,O,0,0,3.31,[3.31],"[""['hunt_et_al']""]"
2150,ClC(Cl)(Cl)C[OH:3],O,0,0,12.24,[12.24],"[""['hunt_et_al']""]"
2151,C[C@H]1COc2c(N3CC[NH+:21](C)CC3)c(F)cc3c(=O)c(C(=O)[O-])cn1c23,O,0,0,8.14,[8.14],"[""['hunt_et_al']""]"
2152,Cc1ccc(C(=O)O)cc1C,CC#N,619-04-5,"3,4-dimethylbenzoic acid",19.0,[19.0],"[""['MeCN_Acids_COSMO-RS_2008_Table.pdf']""]"
2153,COc1c(N2CC[NH2+:20][C@H](C)C2)c(F)cc2c(=O)c(C(=O)O)cn(C3CC3)c12,O,0,0,9.18,[9.18],"[""['hunt_et_al']""]"
2154,c1ccc2c[nH+]ncc2c1,O,,phthalazin-3-ium,3.47,[3.47],"[""['pKa_values_of_nitrogen_heterocycles.pdf']""]"
2155,CS(=O)(=O)c1cccc([NH3+:8])c1,O,0,0,2.561,[2.561],"[""['hunt_et_al']""]"
2156,C[C@H](Oc1ccc(Cl)cc1Cl)C(=O)[OH:11],O,0,0,3.1,[3.1],"[""['hunt_et_al']""]"
2157,CC(C)NC[C@H](O)c1cc(O)cc([OH:13])c1,O,0,0,9.9,[9.9],"[""['hunt_et_al']""]"
2158,C[NH2+:19]CC[C@@H](Oc1cc(Cl)ccc1C#N)c1ccccc1,O,0,0,9.9,[9.9],"[""['hunt_et_al']""]"
2159,CCC[NH3+:4],O,0,0,10.69,[10.69],"[""['hunt_et_al']""]"
2160,NC1=[NH+:15][C@H](c2ccccc2)Nc2ccccc21,O,0,0,9.83,[9.83],"[""['hunt_et_al']""]"
2161,CCCc1ccc([OH:10])cc1,O,0,0,10.34,[10.34],"[""['hunt_et_al']""]"
2162,FC(F)(F)Sc1cccc([NH3+:8])c1,O,0,0,3.3,[3.3],"[""['hunt_et_al']""]"
2163,Brc1ccc([OH:7])c(Br)c1,O,0,0,7.84,[7.84],"[""['hunt_et_al']""]"
2164,C[NH2+:10]C[C@H](O)c1ccc(F)c(F)c1,O,0,0,9.23,[9.23],"[""['hunt_et_al']""]"
2165,c1ccc([NH2+:12]C2CCCC2)cc1,O,0,0,5.3,[5.3],"[""['hunt_et_al']""]"
2166,c1c[nH][nH+]c1,C1CCOC1,,1H-pyrazol-2-ium,3.6,[3.6],"[""['Bases_pKa_values_MeCN_DMSO_THF_Water.pdf']""]"
2167,c1ccc2c([OH:11])cccc2c1,O,0,0,9.3,[9.3],"[""['hunt_et_al']""]"
2168,O=[N+]([O-])c1c(O)c([N+](=O)[O-])c2c([N+](=O)[O-])c1S2,CC#N,-,"2,4,7-trinitro-6-thiabicyclo[3.1.1]hepta-1(7),2,4-trien-3-ol",11.0,[11.0],"[""['MeCN_Acids_COSMO-RS_2008_Table.pdf']""]"
2169,Oc1c(C(F)(F)F)c(C(F)(F)F)c(C(F)(F)F)c(C(F)(F)F)c1C(F)(F)F,O,723294-91-5,"2,3,4,5,6-pentakis(trifluoromethyl)phenol",1.32,[1.32],"[""['Ejoc202001649-sup-00001-misc_information.pdf']""]"
2170,C[NH+:13](C)c1ccc2ccccc2c1,O,0,0,4.566,[4.566],"[""['hunt_et_al']""]"
2171,C[NH+](C)C,CC#N,,trimethylazanium,17.61,[17.61],"[""['Bases_pKa_values_MeCN_DMSO_THF_Water.pdf']""]"
2172,O=C(CC[NH+:22]1CCCCC1)C(c1ccccc1)c1ccccc1,O,0,0,9.45,[9.45],"[""['hunt_et_al']""]"
2173,O=C(O)CCCCCCCC(=O)O,CC#N,123-99-9,nonanedioic acid,20.9,[20.9],"[""['MeCN_Acids_COSMO-RS_2008_Table.pdf']""]"
2174,C[C@H]1CCC[C@@H](C)[NH+:12]1CC(C)(C)O,O,0,0,10.5,[10.5],"[""['hunt_et_al']""]"
2175,C[NH2+:11]CCCc1ccccc1,O,0,0,10.43,[10.43],"[""['hunt_et_al']""]"
2176,c1cc2c(cc1C[NH3+:9])OCO2,O,0,0,9.37,[9.37],"[""['hunt_et_al']""]"
2177,O=C(Nc1ccc(Cl)c(S(=O)(=O)N2CC[NH2+:18]CC2)c1[O-])Nc1cccc(F)c1Cl,O,0,0,8.5,[8.5],"[""['hunt_et_al']""]"
2178,O=[N+]([O-])c1ccc(S(=O)(=O)NS(=O)(=NS(=O)(=O)C(F)(F)F)c2ccc(Cl)cc2)cc1,C(CCl)Cl,174788-97-7,,35.9,[35.9],"[""['leito_acids']""]"
2179,O=C(Cc1cccc(F)c1)[OH:10],O,0,0,4.13,[4.13],"[""['hunt_et_al']""]"
2180,c1cnc2c(c1)ccc1ccc3ccc[nH+]c3c12,CC#N,,,19.61,[19.61],"[""['pKa_values_of_nitrogen_heterocycles.pdf']""]"
2181,NC(Nc1ccccc1)=[NH+]c1ccccc1,C1CCOC1,-,[amino(anilino)methylidene]-phenylazanium,13.9,[13.9],"[""['Bases_pKa_values_MeCN_DMSO_THF_Water.pdf']""]"
2182,COc1nn(C(=O)[NH:16]S(=O)(=O)c2ccccc2OC(F)(F)F)c(=O)n1C,O,0,0,1.9,[1.9],"[""['hunt_et_al']""]"
2183,COc1cccc(C(c2ccccc2)=[NH2+:15])c1,O,0,0,6.59,[6.59],"[""['hunt_et_al']""]"
2184,Cc1ccc(C[NH3+:9])cn1,O,0,0,8.7,[8.7],"[""['hunt_et_al']""]"
2185,Clc1ccc(Cl)c(O[C@@H](C[NH3+:15])c2ccccc2)c1,O,0,0,8.5,[8.5],"[""['hunt_et_al']""]"
2186,[O-]C(=S)CCCCC(=S)[OH:7],O,0,0,4.352,[4.352],"[""['hunt_et_al']""]"
2187,c1c[nH+][nH]n1,CC#N,-,2H-triazol-1-ium,7.95,"[7.9, 8.0]","[""['pKa_values_of_nitrogen_heterocycles.pdf', 'Bases_pKa_values_MeCN_DMSO_THF_Water.pdf']""]"
2188,O=S1(=O)NS(=O)(=O)Oc2c(-c3cc(C(F)(F)F)cc(C(F)(F)F)c3)cc3ccccc3c2-c2c(c(-c3cc(C(F)(F)F)cc(C(F)(F)F)c3)cc3ccccc23)O1,CC#N,1486486-93-4,"10,18-bis[3,5-bis(trifluoromethyl)phenyl]-12,16-dioxa-136,156-dithia-14-azapentacyclo[15.8.0.02,11.03,8.020,25]pentacosa-1(17),2(11),3,5,7,9,18,20,22,24-decaene 13,13,15,15-tetraoxide",5.085,"[4.97, 5.2]","[""['Ejoc202001649-sup-00001-misc_information.pdf', 'leito_acids']""]"
2189,Fc1nc(F)c(F)c(Nc2ccccc2)c1F,CC#N,39077-43-5,"2,3,5,6-tetrafluoro-N-phenylpyridin-4-amine",24.8575,"[26.34, 20.39, 26.36, 26.34]","[""['MeCN_Acids_COSMO-RS_2008_Table.pdf', 'pKa_values_of_acids_in_acetonitrile.pdf', 'Ejoc202001649-sup-00001-misc_information.pdf', 'leito_acids']""]"
2190,COC(=O)c1cc([NH3+:13])c2ccccc2c1,O,0,0,3.12,[3.12],"[""['hunt_et_al']""]"
2191,CC[C@](C)([C@H](N)C(=O)O)[SH:10],O,0,0,8.1,[8.1],"[""['hunt_et_al']""]"
2192,CCc1cc2c([OH:13])ccc(CC)c2s1,O,0,0,9.56,[9.56],"[""['hunt_et_al']""]"
2193,Cc1c(C2(c3cc(C(C)C)c(O)c(Br)c3C)OS(=O)(=O)c3ccccc32)cc(C(C)C)c(O)c1Br,CC#N,76-59-5,"2-bromo-4-[3-(3-bromo-4-hydroxy-2-methyl-5-propan-2-ylphenyl)-1,1-dioxo-2,16-benzoxathiol-3-yl]-3-methyl-6-propan-2-ylphenol",11.7,[11.7],"[""['a_unified_view_to_bronsted_acidity_scales.pdf']""]"
2194,C=CC[NH2+:5]C,O,0,0,10.11,[10.11],"[""['hunt_et_al']""]"
2195,O=[N+]([O-])c1cc(Cl)ccc1[NH3+:7],O,0,0,-1.02,[-1.02],"[""['hunt_et_al']""]"
2196,CC(C)[NH2+:12]CCc1ccccc1,O,0,0,10.02,[10.02],"[""['hunt_et_al']""]"
2197,CNc1nc(C)cc(C)[nH+:8]1,O,0,0,5.23,[5.23],"[""['hunt_et_al']""]"
2198,c1ccc(C[NH2+:14]c2ccccc2)cc1,O,0,0,4.04,[4.04],"[""['hunt_et_al']""]"
2199,Cc1c(Br)cc([NH3+:8])cc1Br,O,0,0,2.87,[2.87],"[""['hunt_et_al']""]"
2200,Oc1ccc([OH:7])nn1,O,0,0,13.0,[13.0],"[""['hunt_et_al']""]"
2201,CC[C@H]1CSC(C(C)C)=[NH+:9]1,O,0,0,5.276,[5.276],"[""['hunt_et_al']""]"
2202,O=S(=O)(c1ccc(Cl)cc1)c1ccc([NH3+:13])cc1,O,0,0,1.38,[1.38],"[""['hunt_et_al']""]"
2203,O=[N+]([O-])c1cccc([N+](=O)[O-])c1[NH:13]c1ccc(Cl)cc1Cl,O,0,0,12.53,[12.53],"[""['hunt_et_al']""]"
2204,COC(=O)C1=C(C)NC(C)=C(C(=O)OCC[N@@H+:29](C)Cc2ccccc2)[C@H]1c1cccc([N+](=O)[O-])c1,O,0,0,7.26,[7.26],"[""['hunt_et_al']""]"
2205,CCC(CO)(CO)[NH3+:6],O,0,0,8.8,[8.8],"[""['hunt_et_al']""]"
2206,Brc1ccc(Br)c([NH3+:7])c1,O,0,0,1.44,[1.44],"[""['hunt_et_al']""]"
2207,CCC[NH+](CCC)CCC,C1CCOC1,-,tripropylazanium,13.0,[13.0],"[""['Bases_pKa_values_MeCN_DMSO_THF_Water.pdf']""]"
2208,CCOP(=O)(OCC)OCC[NH+:11](CC)CC,O,0,0,8.4,[8.4],"[""['hunt_et_al']""]"
2209,Cc1ccc([C@@H]2C[C@H]2[NH3+:11])cc1,O,0,0,8.33,[8.33],"[""['hunt_et_al']""]"
2210,N#CC(C#N)c1ccc([N+](=O)[O-])cc1,O,7077-65-8,2-(4-nitrophenyl)propanedinitrile,2.3,[2.3],"[""['Ejoc202001649-sup-00001-misc_information.pdf']""]"
2211,c1ccc2c(c1)ccc1ccc[nH+]c12,CC#N,,benzo[h]quinolin-1-ium,10.84,[10.84],"[""['pKa_values_of_nitrogen_heterocycles.pdf']""]"
2212,Brc1ccc([NH3+:11])c2ccccc12,O,0,0,3.21,[3.21],"[""['hunt_et_al']""]"
2213,COc1c(N2C[C@@H]3CCC[NH2+:22][C@@H]3C2)c(F)cc2c(=O)c(C(=O)O)cn(C3CC3)c12,O,0,0,9.51,[9.51],"[""['hunt_et_al']""]"
2214,CCCCCCc1ccccc1[OH:13],O,0,0,10.66,[10.66],"[""['hunt_et_al']""]"
2215,c1ccc2c(c1)CC([NH3+:10])C2,O,0,0,9.57,[9.57],"[""['hunt_et_al']""]"
2216,CCCC[NH2+:6]C,O,0,0,10.9,[10.9],"[""['hunt_et_al']""]"
2217,OCC(CO)(CO)[NH3+:5],O,0,0,8.08,[8.08],"[""['hunt_et_al']""]"
2218,O=C(CC[NH+:21]1CCOCC1)C(c1ccccc1)c1ccccc1,O,0,0,6.39,[6.39],"[""['hunt_et_al']""]"
2219,C[NH+:6](CCCl)CCCl,O,0,0,6.415,"[6.4, 6.43]","[""['hunt_et_al']"", ""['hunt_et_al']""]"
2220,[NH3+]Cc1ccccc1,CC#N,-,benzylazanium,16.92,[16.92],"[""['Bases_pKa_values_MeCN_DMSO_THF_Water.pdf']""]"
2221,CC(C)[SH:4],O,0,0,10.86,[10.86],"[""['hunt_et_al']""]"
2222,BrCCCCCC[NH3+:7],O,0,0,10.6,[10.6],"[""['hunt_et_al']""]"
2223,NS(=O)(=O)c1ccc(C[NH3+:8])cc1,O,0,0,8.52,[8.52],"[""['hunt_et_al']""]"
2224,COc1nc(C)nc(NC(=O)[NH:17]S(=O)(=O)c2ccccc2Cl)n1,O,0,0,3.4,[3.4],"[""['hunt_et_al']""]"
2225,c1ccc([C@@H]2C[NH+:14]3CCC2CC3)cc1,O,0,0,10.23,[10.23],"[""['hunt_et_al']""]"
2226,O=[N+]([O-])c1cccc2cccc([NH3+:11])c12,O,0,0,2.79,[2.79],"[""['hunt_et_al']""]"
2227,CC[NH3+:3],O,0,0,10.7,[10.7],"[""['hunt_et_al']""]"
2228,CN(C)[P+](NC(C)(C)C)(N(C)C)N(C)C,CC#N,-,(tert-butylamino)-tris(dimethylamino)phosphanium,26.98,[26.98],"[""['Bases_pKa_values_MeCN_DMSO_THF_Water.pdf']""]"
2229,CCC(=O)O[OH:5],O,0,0,8.2,[8.2],"[""['hunt_et_al']""]"
2230,CC1=CCC[N@@H+:7]1C,O,0,0,11.9,[11.9],"[""['hunt_et_al']""]"
2231,CCCCOC(=O)c1ccc([OH:13])cc1,O,0,0,8.47,[8.47],"[""['hunt_et_al']""]"
2232,[NH4+],CC#N,14798-03-9,azanium,16.46,[16.46],"[""['Bases_pKa_values_MeCN_DMSO_THF_Water.pdf']""]"
2233,C[NH+:9](C)[C@@H]1CCCC[C@H]1O,O,0,0,10.32,[10.32],"[""['hunt_et_al']""]"
2234,CC=CC=CC(=O)O,CC#N,110-44-1,"hexa-2,4-dienoic acid",22.97,"[22.97, 22.97]","[""['pKa_values_of_acids_in_acetonitrile.pdf', 'Ejoc202001649-sup-00001-misc_information.pdf']""]"
2235,O=C([O-])c1cn(C2CC2)c2c(Cl)c(N3CC[C@H]([NH3+:20])C3)c(F)cc2c1=O,O,0,0,9.1,[9.1],"[""['hunt_et_al']""]"
2236,C1C[NH+]2CCN1CC2,CS(=O)C,49623-77-0,4-aza-1-azoniabicyclo[2.2.2]octane,9.06,[9.06],"[""['Bases_pKa_values_MeCN_DMSO_THF_Water.pdf']""]"
2237,CCCC(CCC)C(=O)[OH:10],O,0,0,4.6,[4.6],"[""['hunt_et_al']""]"
2238,O=[N+]([O-])c1ccc(O)c([N+](=O)[O-])c1,CC#N,51-28-5,"2,4-dinitrophenol",16.656,"[16.66, 16.66, 16.65, 16.65, 16.66]","[""['MeCN_Acids_COSMO-RS_2008_Table.pdf', 'pKa_values_of_acids_and_bases_in_MeCN_DCE_DMSO_H2O_THF_C7_DME.pdf', 'pKa_values_of_acids_in_acetonitrile.pdf', 'Ejoc202001649-sup-00001-misc_information.pdf', 'leito_acids']""]"
2239,Cc1c(F)c(F)c(C(C#N)c2ccccc2)c(F)c1F,CS(=O)C,58432-62-5,"2-phenyl-2-(2,3,5,6-tetrafluoro-4-methylphenyl)acetonitrile",13.2,[13.2],"[""['Ejoc202001649-sup-00001-misc_information.pdf']""]"
2240,C[NH2+:10]CCc1ccccc1,O,0,0,10.08,[10.08],"[""['hunt_et_al']""]"
2241,C[NH2+:12]CCCCc1ccccc1,O,0,0,10.8,[10.8],"[""['hunt_et_al']""]"
2242,c1ccc(C[NH2+]Cc2ccccc2)cc1,O,-,dibenzylazanium,8.52,[8.52],"[""['Bases_pKa_values_MeCN_DMSO_THF_Water.pdf']""]"
2243,O=[N+]([O-])c1ccccc1O,CC#N,88-75-5,2-nitrophenol,22.85,"[22.85, 22.85, 22.85, 22.85]","[""['MeCN_Acids_COSMO-RS_2008_Table.pdf', 'pKa_values_of_acids_in_acetonitrile.pdf', 'Ejoc202001649-sup-00001-misc_information.pdf', 'leito_acids']""]"
2244,c1ccc2[nH+]c3ccccc3cc2c1,CC#N,-,acridin-10-ium,12.665,"[12.67, 12.66]","[""['pKa_values_of_nitrogen_heterocycles.pdf', 'Bases_pKa_values_MeCN_DMSO_THF_Water.pdf']""]"
2245,O=C(O)[C@H](c1ccccc1)[NH+:26]1CCC(N2CCC(Oc3ccc(Cl)c(Cl)c3)CC2)CC1,O,0,0,9.1,[9.1],"[""['hunt_et_al']""]"
2246,COc1ccc([C@@H](O)C[NH2+:15]C(C)(C)C)cc1OC,O,0,0,9.73,[9.73],"[""['hunt_et_al']""]"
2247,Cc1ccc(S(=O)(=O)N2CC[NH2+:12]CC2)cc1,O,0,0,7.4,[7.4],"[""['hunt_et_al']""]"
2248,C1=C(Cc2ccccc2)[NH2+:12]CC1,O,0,0,7.06,[7.06],"[""['hunt_et_al']""]"
2249,C[NH2+:10]C[C@H](O)c1ccc(O)cc1,O,0,0,9.6,[9.6],"[""['hunt_et_al']""]"
2250,CCCN(CCC)CCc1ccc([OH:20])c2c1CC(=O)N2,O,0,0,8.35,[8.35],"[""['hunt_et_al']""]"
2251,NC(=O)NCC(=O)[OH:8],O,0,0,3.89,[3.89],"[""['hunt_et_al']""]"
2252,CCCc1ccc([OH:13])c(CCC)c1,O,0,0,10.91,[10.91],"[""['hunt_et_al']""]"
2253,Oc1cc(Cl)c(Cl)c(Cl)c1,CC#N,609-19-8,"3,4,5-trichlorophenol",22.5,[22.5],"[""['MeCN_Acids_COSMO-RS_2008_Table.pdf']""]"
2254,Oc1c(Br)c(Br)c(Br)c(Br)c1Br,CC#N,608-71-9,"2,3,4,5,6-pentabromophenol",17.82,"[17.83, 17.81, 17.81, 17.83]","[""['MeCN_Acids_COSMO-RS_2008_Table.pdf', 'pKa_values_of_acids_in_acetonitrile.pdf', 'Ejoc202001649-sup-00001-misc_information.pdf', 'leito_acids']""]"
2255,Cc1ccc([NH3+:8])cc1,O,0,0,5.1,[5.1],"[""['hunt_et_al']""]"
2256,O=P1(NS(=O)(=O)C(F)(F)F)Oc2c(-c3ccccc3)cc3c(c2-c2c4c(cc(C5C=CC=CC5)c2O1)CCCC4)CCCC3,CC#N,1261302-62-8,,6.6899999999999995,"[6.68, 6.7]","[""['Ejoc202001649-sup-00001-misc_information.pdf', 'leito_acids']""]"
2257,CN1CCN(C2=c3ccccc3=[NH+:19]c3ccc(Cl)cc3N2)CC1,O,0,0,7.5,[7.5],"[""['hunt_et_al']""]"
2258,c1ccc(CCC(CCc2ccccc2)[NH3+:18])cc1,O,0,0,8.8,[8.8],"[""['hunt_et_al']""]"
2259,CC(C)[P@@H](=O)[OH:5],O,0,0,3.56,[3.56],"[""['hunt_et_al']""]"
2260,O=C(Cc1cccc([N+](=O)[O-])c1)[OH:13],O,0,0,3.97,[3.97],"[""['hunt_et_al']""]"
2261,CC(C)(C)C[NH3+:6],O,0,0,10.15,[10.15],"[""['hunt_et_al']""]"
2262,CCO[P@@](C)(=O)OCC[NH+:8](C)C,O,0,0,8.14,[8.14],"[""['hunt_et_al']""]"
2263,COc1ccc([C@H](C)[NH3+:10])cc1,O,0,0,9.47,[9.47],"[""['hunt_et_al']""]"
2264,O=C([C@@H](O)CO)[OH:5],O,0,0,3.52,[3.52],"[""['hunt_et_al']""]"
2265,CCCCCCCC[NH3+:9],O,0,0,10.65,[10.65],"[""['hunt_et_al']""]"
2266,O=C1C=C[NH2+]C(=O)N1,CC#N,,"1H-pyrimidin-1-ium-2,4-dione",3.38,[3.38],"[""['pKa_values_of_nitrogen_heterocycles.pdf']""]"
2267,C[NH+:9](C)c1ccc(Cl)cc1,O,0,0,4.395,[4.395],"[""['hunt_et_al']""]"