,Solute SMILES,Solvent SMILES,Solute CAS,Solute IUPAC,pKa (avg),pKa (all),Source (all)
2457,Nc1ccc[nH+]c1N,CC#N,,"pyridin-1-ium-2,3-diamine",15.24,[15.24],"[""['pKa_values_of_nitrogen_heterocycles.pdf']""]"
2458,C=C[C@H]1C[N@H+:22]2CC[C@@H]1C[C@H]2[C@H](O)c1ccnc2ccc(OC)cc12,O,0,0,8.5,[8.5],"[""['hunt_et_al']""]"
2459,CSc1ccccc1[NH2+:9]C,O,0,0,3.71,[3.71],"[""['hunt_et_al']""]"
2460,C[N+](C)(C)CCCc1ccccc1[OH:14],O,0,0,9.78,[9.78],"[""['hunt_et_al']""]"
2461,CCc1cc(C(N)=S)cc[nH+:9]1,O,0,0,4.4,[4.4],"[""['hunt_et_al']""]"
2462,CCOc1cccc([NH3+:9])c1,O,0,0,4.18,[4.18],"[""['hunt_et_al']""]"
2463,[NH3+]c1c(Cl)c(Cl)c(Cl)c(Cl)c1Cl,CC#N,,"(2,3,4,5,6-pentachlorophenyl)azanium",2.35,[2.35],"[""['pKa_values_of_nitrogen_heterocycles.pdf']""]"
2464,Cc1cccc(C[NH+:13](CCO)CCO)c1,O,0,0,7.0,[7.0],"[""['hunt_et_al']""]"
2465,C[NH+:9](C)c1ccccc1,O,0,0,5.068,[5.068],"[""['hunt_et_al']""]"
2466,N#Cc1cc(F)c(Cl)cc1O[C@H](CC[NH3+:18])c1ccccc1,O,0,0,9.6,[9.6],"[""['hunt_et_al']""]"
2467,Cc1cnc2c(C(=O)[OH:14])c(Cl)ccc2c1,O,0,0,3.96,[3.96],"[""['hunt_et_al']""]"
2468,O=[N+]([O-])c1cccc2cc[nH]c12,CC#N,6960-42-5,7-nitro-1H-indole,29.99,"[29.99, 29.99]","[""['pKa_values_of_acids_in_acetonitrile.pdf', 'Ejoc202001649-sup-00001-misc_information.pdf']""]"
2469,O=C(CSCCc1ccccc1)[OH:12],O,0,0,3.79,[3.79],"[""['hunt_et_al']""]"
2470,c1ccc2cc([OH:11])ncc2c1,O,0,0,9.62,[9.62],"[""['hunt_et_al']""]"
2471,CCCC[NH+:9]1CCCC1,O,0,0,10.36,[10.36],"[""['hunt_et_al']""]"
2472,O=[N+]([O-])c1ccc(S(=O)(=O)NS(=O)(=O)c2c(F)c(F)c(F)c(F)c2F)cc1,CC#N,1171188-93-4,"2,3,4,5,6-pentafluoro-N-((4-nitrophenyl)sulfonyl)benzenesulfonamide",6.599999999999999,"[6.6, 6.6, 6.6]","[""['DCE_2011_pKa_Table_MeCN.pdf', 'pKa_values_of_acids_in_acetonitrile.pdf', 'leito_acids']""]"
2473,[NH3+]c1ccc(Br)cc1,CC#N,,(4-bromophenyl)azanium,9.43,[9.43],"[""['pKa_values_of_nitrogen_heterocycles.pdf']""]"
2474,c1cc([OH:11])c2cnccc2c1,O,0,0,8.42,[8.42],"[""['hunt_et_al']""]"
2475,Cc1ccccc1[NH2+:12]C(C)(C)C,O,0,0,6.49,[6.49],"[""['hunt_et_al']""]"
2476,C=CC[NH+:10](CC=C)CC=C,O,0,0,8.31,[8.31],"[""['hunt_et_al']""]"
2477,CC[C@H](c1ccccc1)[NH3+:10],O,0,0,9.3,[9.3],"[""['hunt_et_al']""]"
2478,c1ccc(C[SH:8])cc1,O,0,0,9.43,[9.43],"[""['hunt_et_al']""]"
2479,Cc1ccc([OH:12])c(C(C)(C)C)c1,O,0,0,11.5,[11.5],"[""['hunt_et_al']""]"
2480,O=C([O-])Cc1ccc([NH3+:9])cc1,O,0,0,5.26,[5.26],"[""['hunt_et_al']""]"
2481,[NH3+]Cc1ccccc1,C1CCOC1,-,benzylazanium,12.1,[12.1],"[""['Bases_pKa_values_MeCN_DMSO_THF_Water.pdf']""]"
2482,CC(C)(C)[P@@H](=O)[OH:6],O,0,0,4.24,[4.24],"[""['hunt_et_al']""]"
2483,Cc1c(F)c(F)c([C@@H](C#N)c2c(F)c(F)c(F)c(F)c2F)c(F)c1F,CC#N,52345-34-3,"(R)-2-(perfluorophenyl)-2-(2,3,5,6-tetrafluoro-4-methylphenyl)acetonitrile",21.94,"[21.94, 21.94]","[""['MeCN_Acids_COSMO-RS_2008_Table.pdf', 'Ejoc202001649-sup-00001-misc_information.pdf']""]"
2484,COC(=O)[C@@H]1C[NH+:10]2CCC1CC2,O,0,0,9.4,[9.4],"[""['hunt_et_al']""]"
2485,CC(C)[NH3+],O,,propan-2-ylazanium,10.65,[10.65],"[""['Bases_pKa_values_MeCN_DMSO_THF_Water.pdf']""]"
2486,CN(C)[P+](N)(N(C)C)N(C)C,CC#N,-,amino-tris(dimethylamino)phosphanium,25.85,[25.85],"[""['Bases_pKa_values_MeCN_DMSO_THF_Water.pdf']""]"
2487,Cc1ccc(S(=O)(=O)NC(=O)N2CCC([NH+:27]3CCC(Oc4ccc(Cl)c(C)c4Cl)CC3)CC2)cc1,O,0,0,8.7,[8.7],"[""['hunt_et_al']""]"
2488,CC(=O)CCCC[NH+:9](C)C,O,0,0,9.6,[9.6],"[""['hunt_et_al']""]"
2489,O=C([C@H](O)c1ccccc1)[OH:10],O,0,0,3.19,[3.19],"[""['hunt_et_al']""]"
2490,O=C(CCCc1ccccc1)[OH:12],O,0,0,4.76,[4.76],"[""['hunt_et_al']""]"
2491,NS(=O)(=O)c1c(F)c(F)c(F)c(F)c1F,O,778-36-9,"2,3,4,5,6-pentafluorobenzenesulfonamide",8.3,[8.3],"[""['Ejoc202001649-sup-00001-misc_information.pdf']""]"
2492,[NH3+]c1ccc(CC(=O)[OH:11])cc1,O,0,0,3.6,[3.6],"[""['hunt_et_al']""]"
2493,C[C@H](Cc1ccc(Cl)cc1)[NH3+:10],O,0,0,9.9,[9.9],"[""['hunt_et_al']""]"
2494,O=P1(NS(=O)(=O)C(F)(F)F)OC2=C(c3c4c(cc(-c5ccc(F)cc5)c3O1)CCCC4)C1CCCCC1C=C2c1ccc(F)cc1,CC#N,1431711-91-9,-,6.26,"[6.22, 6.3]","[""['Ejoc202001649-sup-00001-misc_information.pdf', 'leito_acids']""]"
2495,C[NH2+]CC(=O)[OH:6],O,0,0,2.35,[2.35],"[""['hunt_et_al']""]"
2496,Cc1ccc(S(=O)(=O)[NH:27]c2c(C(=O)N[C@@H](C)C(C)(C)C)c(C(F)(F)F)nn2-c2ccccc2)cc1,O,0,0,3.8,[3.8],"[""['hunt_et_al']""]"
2497,Cc1ccc([C@@H](O)C[NH2+:13]C(C)C)cc1,O,0,0,9.35,[9.35],"[""['hunt_et_al']""]"
2498,CC1=CCCC[C@@H]1[NH3+:8],O,0,0,10.37,[10.37],"[""['hunt_et_al']""]"
2499,c1ncc2ccc([OH:11])cc2n1,O,0,0,7.39,[7.39],"[""['hunt_et_al']""]"
2500,CC[NH+:15](CC)CCOC(=O)c1ccc(N)cc1,O,0,0,9.1,[9.1],"[""['hunt_et_al']""]"
2501,O=[N+]([O-])c1cc([N+](=O)[O-])c(Nc2c([N+](=O)[O-])cc([N+](=O)[O-])cc2[N+](=O)[O-])c([N+](=O)[O-])c1,O,131-73-7,"2,4,6-trinitro-N-(2,4,6-trinitrophenyl)aniline",2.63,[2.63],"[""['Ejoc202001649-sup-00001-misc_information.pdf']""]"
2502,CCCC(=O)O,CC#N,107-92-6,butanoic acid,22.7,[22.7],"[""['MeCN_Acids_COSMO-RS_2008_Table.pdf']""]"
2503,CSc1cccc([OH:8])c1,O,0,0,9.53,[9.53],"[""['hunt_et_al']""]"
2504,CC[C@@H](C)[NH2+:9][C@H](C)CC,O,0,0,10.91,[10.91],"[""['hunt_et_al']""]"
2505,Cc1cccc(/C=C/C(=O)[OH:12])c1,O,0,0,4.44,[4.44],"[""['hunt_et_al']""]"
2506,CC[C@H](C)c1ccc([OH:14])c([N+](=O)[O-])c1,O,0,0,7.59,[7.59],"[""['hunt_et_al']""]"
2507,c1cncc(C[NH+:13]2CCCCC2)c1,O,0,0,8.3,[8.3],"[""['hunt_et_al']""]"
2508,Cc1ccc(C(C#N)C#N)cc1,CS(=O)C,33534-88-2,2-(4-methylphenyl)propanedinitrile,4.85,[4.85],"[""['Ejoc202001649-sup-00001-misc_information.pdf']""]"
2509,CN(C)P(=N[P+](N=P(N(C)C)(N(C)C)N(C)C)(N=P(N(C)C)(N(C)C)N(C)C)NC(C)(C)C)(N(C)C)N(C)C,O,-,(tert-butylamino)-tris[[tris(dimethylamino)-_5-phosphanylidene]amino]phosphanium,30.0,[30.0],"[""['Bases_pKa_values_MeCN_DMSO_THF_Water.pdf']""]"
2510,CC(C)(C(=O)O)c1ccc([C@@H](O)CCC[NH+:33]2CCC(C(O)(c3ccccc3)c3ccccc3)CC2)cc1,O,0,0,7.53,[7.53],"[""['hunt_et_al']""]"
2511,C1=C(c2ccccc2)C2CC[NH+:14]1CC2,O,0,0,9.1,[9.1],"[""['hunt_et_al']""]"
2512,Clc1cc(Cl)cc([NH3+:7])c1,O,0,0,2.371,[2.371],"[""['hunt_et_al']""]"
2513,CCOC(=O)c1ccc([C@@H](O)C[NH2+:15]C(C)C)cc1,O,0,0,9.43,[9.43],"[""['hunt_et_al']""]"
2514,O=C(NS(=O)(=O)c1ccc(F)cc1)N1CCC([NH+:25]2CCC(Oc3ccc(Cl)c(Cl)c3)CC2)CC1,O,0,0,8.45,[8.45],"[""['hunt_et_al']""]"
2515,O=[N+]([O-])c1cc(Cl)c([OH:10])c(Cl)c1,O,0,0,3.6,[3.6],"[""['hunt_et_al']""]"
2516,O=C(O)[C@H](c1ccccc1)N1CCC(C[NH+:26]2CCC(Oc3ccc(Cl)c(Cl)c3)CC2)CC1,O,0,0,9.6,[9.6],"[""['hunt_et_al']""]"
2517,c1ccc(Sc2ccccc2[NH3+:13])cc1,O,0,0,2.5,[2.5],"[""['hunt_et_al']""]"
2518,O=C(CP(=O)(c1ccccc1)c1ccccc1)[OH:17],O,0,0,3.62,[3.62],"[""['hunt_et_al']""]"
2519,CC(C)[NH2+:12]C[C@H](O)c1ccc(Br)cc1,O,0,0,9.26,[9.26],"[""['hunt_et_al']""]"
2520,Oc1c(Cl)c(Cl)c(Cl)c(Cl)c1Cl,CN(C)C=O,87-86-5,"2,3,4,5,6-pentachlorophenol",7.97,[7.97],"[""['Ejoc202001649-sup-00001-misc_information.pdf']""]"
2521,CC(C)(C)c1cccc([NH3+:11])c1,O,0,0,4.66,[4.66],"[""['hunt_et_al']""]"
2522,CC[NH2+]CC,C1CCOC1,-,diethylazanium,13.0,[13.0],"[""['Bases_pKa_values_MeCN_DMSO_THF_Water.pdf']""]"
2523,COC(=O)c1ccccc1S(=O)(=O)[NH:19]C(=O)Nc1nc(C)nc(OC)n1,O,0,0,3.8,[3.8],"[""['hunt_et_al']""]"
2524,C[NH2+]c1ccccc1,O,-,methyl(phenyl)azanium,4.85,[4.85],"[""['Bases_pKa_values_MeCN_DMSO_THF_Water.pdf']""]"
2525,C[NH2+:8]c1ccccc1,O,0,0,4.848,[4.848],"[""['hunt_et_al']""]"
2526,O=C(c1ccc(C2CCCC2)cc1)[OH:14],O,0,0,4.21,[4.21],"[""['hunt_et_al']""]"
2527,CC(C)[NH2+:13]C[C@H](O)c1cccc(C(F)(F)F)c1,O,0,0,9.3,[9.3],"[""['hunt_et_al']""]"
2528,COc1ccc(C[C@@H](C)[NH3+:11])cc1,O,0,0,9.99,[9.99],"[""['hunt_et_al']""]"
2529,O=[N+]([O-])c1cccc2[nH]ccc12,CC#N,4769-97-5,4-nitro-1H-indole,27.89,"[27.89, 27.89]","[""['pKa_values_of_acids_in_acetonitrile.pdf', 'Ejoc202001649-sup-00001-misc_information.pdf']""]"
2530,N#CCC(=O)[OH:6],O,0,0,2.45,[2.45],"[""['hunt_et_al']""]"
2531,N#Cc1ccc(N)[nH+:8]c1,O,0,0,3.41,[3.41],"[""['hunt_et_al']""]"
2532,CC[C@H](C)C[NH2+:12]C1CCCCC1,O,0,0,11.09,[11.09],"[""['hunt_et_al']""]"
2533,C[C@](C#N)(C(=O)[OH:13])c1ccccc1,O,0,0,2.29,[2.29],"[""['hunt_et_al']""]"
2534,Clc1ccc2cccnc2c1[OH:11],O,0,0,8.7,[8.7],"[""['hunt_et_al']""]"
2535,c1ccc(-c2ccccc2[NH3+:13])cc1,O,0,0,3.82,[3.82],"[""['hunt_et_al']""]"
2536,Oc1cc(C(F)(F)F)cc(C(F)(F)F)c1,O,349-58-6,"3,5-bis(trifluoromethyl)phenol",8.03,[8.03],"[""['Ejoc202001649-sup-00001-misc_information.pdf']""]"
2537,N#CC(c1c(F)c(F)cc(F)c1F)c1c(F)c(F)c(F)c(F)c1F,C(CCl)Cl,42254-09-1,"2-(2,3,4,5,6-pentafluorophenyl)-2-(2,3,5,6-tetrafluorophenyl)acetonitrile",55.7,"[55.7, 55.7]","[""['leito_acids']"", ""['Ejoc202001649-sup-00001-misc_information.pdf']""]"
2538,CCC(CC)NC(=O)c1cn(-c2ccccc2)nc1[NH:25]S(=O)(=O)c1ccc(C)cc1,O,0,0,5.3,[5.3],"[""['hunt_et_al']""]"
2539,CCCC[N@@H+:10]1CCC[C@H]1C,O,0,0,10.61,[10.61],"[""['hunt_et_al']""]"
2540,[NH3+][C@@H]1CCc2cc([OH:12])c(O)cc2C1,O,0,0,9.1,[9.1],"[""['hunt_et_al']""]"
2541,C[n+]1ccc2c([OH:12])cccc2c1,O,0,0,6.87,[6.87],"[""['hunt_et_al']""]"
2542,CNC(=O)C[SH:6],O,0,0,8.05,[8.05],"[""['hunt_et_al']""]"
2543,Clc1cc(Cl)c([OH:7])cc1Cl,O,0,0,7.37,[7.37],"[""['hunt_et_al']""]"
2544,FC(F)(F)Oc1cccc([NH3+:8])c1,O,0,0,3.25,[3.25],"[""['hunt_et_al']""]"
2545,CCOC(=O)N1CCC([NH2+:16]c2cc(Cl)ccn2)CC1,O,0,0,5.3,[5.3],"[""['hunt_et_al']""]"
2546,O=C(CCCC[C@@H]1CCSS1)[OH:10],O,0,0,5.4,[5.4],"[""['hunt_et_al']""]"
2547,CC(C)(C)c1nc(N)[nH+:9]cc1Br,O,0,0,2.88,[2.88],"[""['hunt_et_al']""]"
2548,CCC[N@H+:11](C)c1ccccc1,O,0,0,5.76,[5.76],"[""['hunt_et_al']""]"
2549,O=[N+]([O-])c1cccc(O)c1,CC#N,554-84-7,3-nitrophenol,23.8,[23.8],"[""['MeCN_Acids_COSMO-RS_2008_Table.pdf']""]"
2550,ClCC(Cl)(Cl)C[NH3+:4],O,0,0,6.0,[6.0],"[""['hunt_et_al']""]"
2551,COc1c(Br)cc([NH3+:8])cc1Br,O,0,0,2.98,[2.98],"[""['hunt_et_al']""]"
2552,O=C(/C=C/c1ccc(O)c(O)c1)O[C@@H]1C[C@](O)(C(=O)[OH:21])C[C@@H](O)[C@H]1O,O,0,0,3.33,[3.33],"[""['hunt_et_al']""]"
2553,N#Cc1ccccc1[OH:9],O,0,0,6.98,[6.98],"[""['hunt_et_al']""]"
2554,c1cc2cc([OH:11])ccc2nn1,O,0,0,7.55,[7.55],"[""['hunt_et_al']""]"
2555,CC(C)c1cc(C(C)C)c(-c2cc3ccccc3c3c2OP(=O)(O)Oc2c(-c4c(C(C)C)cc(C(C)C)cc4C(C)C)cc4ccccc4c2-3)c(C(C)C)c1,CS(=O)C,791616-63-2,"13-hydroxy-10,16-bis[2,4,6-tri(propan-2-yl)phenyl]-12,14-dioxa-135-phosphapentacyclo[13.8.0.02,11.03,8.018,23]tricosa-1(15),2(11),3,5,7,9,16,18,20,22-decaene 13-oxide",4.22,[4.22],"[""['Ejoc202001649-sup-00001-misc_information.pdf']""]"
2556,c1cnc2c(c1)ccc1ccc[nH+]c12,CC#N,-,"1,10-phenanthrolin-10-ium",13.684999999999999,"[13.68, 13.69]","[""['pKa_values_of_nitrogen_heterocycles.pdf', 'Bases_pKa_values_MeCN_DMSO_THF_Water.pdf']""]"
2557,C1C[NH2+:5]CCS1,O,0,0,9.0,[9.0],"[""['hunt_et_al']""]"
2558,NS(=O)(=O)c1ccc(F)cc1,CC#N,402-46-0,4-fluorobenzenesulfonamide,25.175,"[24.19, 26.16]","[""['MeCN_Acids_COSMO-RS_2008_Table.pdf', 'Ejoc202001649-sup-00001-misc_information.pdf']""]"
2559,CCCCC[NH+:12](C[C@@H](C)O)C[C@@H](C)O,O,0,0,9.0,[9.0],"[""['hunt_et_al']""]"
2560,O=[N+]([O-])c1cc(S(=O)(=O)NS(=O)(=O)c2ccc(Cl)c([N+](=O)[O-])c2)ccc1Cl,CC#N,64646-01-1,4-chloro-N-((4-chloro-3-nitrophenyl)sulfonyl)-3-nitrobenzenesulfonamide,7.47,[7.47],"[""['Ejoc202001649-sup-00001-misc_information.pdf']""]"
2561,CCn1cc(C(=O)[OH:23])c(=O)c2cc(F)c(N3CC[NH2+][C@H](C)C3)c(F)c21,O,0,0,5.82,[5.82],"[""['hunt_et_al']""]"
2562,c1cnc2nc([OH:11])ncc2c1,O,0,0,8.98,[8.98],"[""['hunt_et_al']""]"
2563,c1cnc2c([OH:11])ccnc2c1,O,0,0,10.03,[10.03],"[""['hunt_et_al']""]"
2564,O=C(NCC12CC3CC(CC(C3)C1)C2)c1cc(OC2CC[NH2+:24]CC2)ccc1Cl,O,0,0,9.0,[9.0],"[""['hunt_et_al']""]"
2565,Cc1ccc(S(N)(=O)=O)cc1,CS(=O)C,70-55-3,4-methylbenzenesulfonamide,16.3,[16.3],"[""['Ejoc202001649-sup-00001-misc_information.pdf']""]"
2566,CCCc1cc(CCC)c([OH:16])c(CCC)c1,O,0,0,11.59,[11.59],"[""['hunt_et_al']""]"
2567,CC(C)(C)[NH2+:14]C[C@H](O)c1ccc(O)c(CO)c1,O,0,0,9.3,[9.3],"[""['hunt_et_al']""]"
2568,O=CO[OH:3],O,0,0,7.1,[7.1],"[""['hunt_et_al']""]"
2569,Cc1ccccc1[OH:8],O,0,0,10.28,[10.28],"[""['hunt_et_al']""]"
2570,O=[N+]([O-])c1ccc2c(c1)Oc1ccccc1N2,CC#N,-,3-nitro-10H-phenoxazine,25.7,[25.7],"[""['MeCN_Acids_COSMO-RS_2008_Table.pdf']""]"
2571,CC(C(F)(F)F)(C(F)(F)F)[OH:5],O,0,0,9.6,[9.6],"[""['hunt_et_al']""]"
2572,N#Cc1ccc(C(=O)[OH:11])cc1,O,0,0,3.55,[3.55],"[""['hunt_et_al']""]"
2573,Cn1cc(C(=O)NC[C@@H](O)C[NH+:24]2CCC(Oc3ccc(Cl)c(Cl)c3)CC2)c(C(F)(F)F)cc1=O,O,0,0,7.8,[7.8],"[""['hunt_et_al']""]"
2574,Nc1ccc(S(=O)(=O)[NH:14]c2ncccn2)cc1,O,0,0,6.29,[6.29],"[""['hunt_et_al']""]"
2575,S=C(c1ccccc1)[NH:14]c1ccccc1,O,0,0,10.6,[10.6],"[""['hunt_et_al']""]"
2576,CNc1nc(OC)cc[nH+:7]1,O,0,0,5.74,[5.74],"[""['hunt_et_al']""]"
2577,C[C@H]1CC[C@@H](O)[C@@H]([NH3+:8])C1,O,0,0,9.38,[9.38],"[""['hunt_et_al']""]"
2578,Nc1ccc(N)[nH+:6]c1,O,0,0,6.48,[6.48],"[""['hunt_et_al']""]"
2579,Brc1cc([NH3+:11])c2ccccc2c1,O,0,0,2.67,[2.67],"[""['hunt_et_al']""]"
2580,CC[NH+:11](CC)c1ccccc1,O,0,0,6.61,[6.61],"[""['hunt_et_al']""]"
2581,c1ccc2nc[nH+]cc2c1,CC#N,,quinazolin-3-ium,9.19,[9.19],"[""['pKa_values_of_nitrogen_heterocycles.pdf']""]"
2582,CC(C)C1=[NH+:8]C[C@H](C)S1,O,0,0,5.164,[5.164],"[""['hunt_et_al']""]"
2583,CC#CC[OH:5],O,0,0,14.16,[14.16],"[""['hunt_et_al']""]"
2584,CCC[NH+:9]1CCCCC1,O,0,0,10.5,[10.5],"[""['hunt_et_al']""]"
2585,NS(=O)(=O)c1ccc(C(F)(F)F)cc1,O,830-43-3,4-(trifluoromethyl)benzenesulfonamide,9.64,[9.64],"[""['Ejoc202001649-sup-00001-misc_information.pdf']""]"
2586,C1=C(c2ccccc2)[NH2+:11]CC1,O,0,0,6.84,[6.84],"[""['hunt_et_al']""]"
2587,C[C@@H](C=C(c1cccs1)c1cccs1)[NH+:19]1CCCCCC1,O,0,0,7.91,[7.91],"[""['hunt_et_al']""]"
2588,FCC[NH3+:3],O,0,0,9.0,[9.0],"[""['hunt_et_al']""]"
2589,FC(F)(F)C(C(F)(F)F)(C(F)(F)Cl)[OH:5],O,0,0,5.3,[5.3],"[""['hunt_et_al']""]"
2590,O=[N+]([O-])C1=NC=C[NH2+]1,CC#N,,2-nitro-1H-imidazol-1-ium,5.54,[5.54],"[""['pKa_values_of_nitrogen_heterocycles.pdf']""]"
2591,CCOP(=O)(OCC)c1cccc(C(=O)[OH:14])c1,O,0,0,3.65,[3.65],"[""['hunt_et_al']""]"
2592,c1ccc2c([OH:11])ncnc2c1,O,0,0,9.87,[9.87],"[""['hunt_et_al']""]"
2593,CN(C)c1ccccc1S(=O)(=O)NC(=O)N1CCC([NH+:27]2CCC(Oc3ccc(Cl)c(Cl)c3)CC2)CC1,O,0,0,8.6,[8.6],"[""['hunt_et_al']""]"
2594,CCC[N@H+:12](CC)c1ccccc1,O,0,0,6.39,[6.39],"[""['hunt_et_al']""]"
2595,CC(=O)Oc1cccc(C(=O)[OH:12])c1,O,0,0,4.0,[4.0],"[""['hunt_et_al']""]"
2596,CC[C@@H]1C[N@H+:7]1CC,O,0,0,8.18,[8.18],"[""['hunt_et_al']""]"
2597,FC(F)(F)c1ccc2cccnc2c1[OH:12],O,0,0,9.08,[9.08],"[""['hunt_et_al']""]"
2598,COC(=O)C1c2ccccc2-c2ccccc21,CS(=O)C,3002-30-0,methyl 9H-fluorene-9-carboxylate,10.35,"[10.35, 10.35]","[""['a_unified_view_to_bronsted_acidity_scales.pdf', 'Ejoc202001649-sup-00001-misc_information.pdf']""]"
2599,COc1cc(C(C)(C)C)c([OH:16])c(C(C)(C)C)c1,O,0,0,12.15,[12.15],"[""['hunt_et_al']""]"
2600,c1ccc2cc([OH:11])ccc2c1,O,0,0,9.57,[9.57],"[""['hunt_et_al']""]"
2601,CCn1cc(C(=O)[OH:22])c(=O)c2cc(F)c(N3CC[NH2+]CC3)nc21,O,0,0,6.2,[6.2],"[""['hunt_et_al']""]"
2602,CCOC(=O)C1=C(C)[NH2+:23]C(C)=C(C(C)=O)[C@H]1c1cccc2c(=O)cc(C)oc12,O,0,0,2.22,[2.22],"[""['hunt_et_al']""]"
2603,O=C(COc1cccc(Br)c1)[OH:10],O,0,0,3.095,[3.095],"[""['hunt_et_al']""]"
2604,CC(C)[NH2+:12]C[C@H](O)c1cccc(Br)c1,O,0,0,9.37,[9.37],"[""['hunt_et_al']""]"
2605,O=C(O)/C=C/c1ccc[nH+:9]c1,O,0,0,4.4,[4.4],"[""['hunt_et_al']""]"
2606,CC(C)([C@@H]([NH3+])C(=O)[O-])[SH:9],O,0,0,7.9,[7.9],"[""['hunt_et_al']""]"
2607,COc1cc[nH+:7]c(N)c1,O,0,0,7.62,[7.62],"[""['hunt_et_al']""]"
2608,c1c[nH+]ccn1,O,-,pyrazin-1-ium,0.6,"[0.6, 0.6]","[""['pKa_values_of_nitrogen_heterocycles.pdf', 'Bases_pKa_values_MeCN_DMSO_THF_Water.pdf']""]"
2609,CCCC[SH:5],O,0,0,10.66,[10.66],"[""['hunt_et_al']""]"
2610,CC(C)Cc1ccc([C@H](C)C(=O)[OH:15])cc1,O,0,0,5.2,[5.2],"[""['hunt_et_al']""]"
2611,CN(C)CC[NH+:7](C)C,O,0,0,9.1,[9.1],"[""['hunt_et_al']""]"
2612,Clc1cccc([NH3+:7])c1Cl,O,0,0,1.761,[1.761],"[""['hunt_et_al']""]"
2613,Cc1cc([OH:9])nc(C)n1,O,0,0,9.82,[9.82],"[""['hunt_et_al']""]"
2614,O=CC(=O)[OH:5],O,0,0,3.18,[3.18],"[""['hunt_et_al']""]"
2615,Clc1ccc2cccc([NH3+:11])c2c1,O,0,0,3.48,[3.48],"[""['hunt_et_al']""]"
2616,CC(C)c1c(Br)cc(Br)c(=O)c([OH:12])c1Br,O,0,0,6.0,[6.0],"[""['hunt_et_al']""]"
2617,O=P1(NS(=O)(=O)C(F)(F)F)Oc2c(-c3ccccc3)cc3ccccc3c2-c2c(c(C3C=CC=CC3)cc3ccccc23)O1,CC#N,1010799-98-0,,6.4,[6.4],"[""['leito_acids']""]"
2618,O=C(Cc1cccc(I)c1)[OH:10],O,0,0,4.16,[4.16],"[""['hunt_et_al']""]"
2619,COc1cccc(C[NH2+:15]c2ccc([N+](=O)[O-])cc2[N+](=O)[O-])c1,O,0,0,-5.07,[-5.07],"[""['hunt_et_al']""]"
2620,CCOc1ccc([NH:11]C(C)=O)cc1,O,0,0,11.8,[11.8],"[""['hunt_et_al']""]"
2621,CCn1cc(C(=O)[OH:23])c(=O)c2cc(F)c(N3CCN(C)CC3)cc21,O,0,0,6.28,[6.28],"[""['hunt_et_al']""]"
2622,Fc1c(F)c(F)c(C2c3c(F)c(F)c(F)c(F)c3-c3c(F)c(F)c(F)c(F)c32)c(F)c1F,CC#N,63264-80-2,"1,2,3,4,5,6,7,8-octafluoro-9-(2,3,4,5,6-pentafluorophenyl)-9H-fluorene",18.876666666666665,"[18.88, 18.88, 18.87, 18.87, 18.88, 18.88]","[""['MeCN_Acids_COSMO-RS_2008_Table.pdf', 'a_unified_view_to_bronsted_acidity_scales.pdf', 'pKa_values_of_acids_in_acetonitrile.pdf', 'Ejoc202001649-sup-00001-misc_information.pdf', 'leito_acids']"", ""['pKa_values_of_acids_and_bases_in_MeCN_DCE_DMSO_H2O_THF_C7_DME.pdf']""]"
2623,Oc1ccccc1,CC#N,108-95-2,phenol,29.17,"[29.14, 29.2, 29.2, 29.14]","[""['MeCN_Acids_COSMO-RS_2008_Table.pdf', 'pKa_values_of_acids_in_acetonitrile.pdf', 'Ejoc202001649-sup-00001-misc_information.pdf', 'leito_acids']""]"
2624,CC[C@@H]([C@@H](O)c1ccc(O)c(O)c1)[NH3+:11],O,0,0,8.42,[8.42],"[""['hunt_et_al']""]"
2625,Cc1[nH][nH+:22]c(C)c1Cc1sc2c(c1C(=O)N1C[C@H](O)CO1)c(=O)n(C)c(=O)n2CC(C)C,O,0,0,3.4,[3.4],"[""['hunt_et_al']""]"
2626,c1cnnc([OH:7])c1,O,0,0,10.5,[10.5],"[""['hunt_et_al']""]"
2627,O=C(C(c1ccccc1)c1ccccc1)[OH:16],O,0,0,3.94,[3.94],"[""['hunt_et_al']""]"
2628,COC(=O)c1cccc(C)c1S(=O)(=O)[NH:22]C(=O)Nc1nc(OCC(F)(F)F)nc(N(C)C)n1,O,0,0,4.4,[4.4],"[""['hunt_et_al']""]"
2629,O=C(N[OH:13])c1cccc([N+](=O)[O-])c1,O,0,0,8.07,[8.07],"[""['hunt_et_al']""]"
2630,CSc1cccc([C@@H](O)C[NH2+:13]C(C)C)c1,O,0,0,9.42,[9.42],"[""['hunt_et_al']""]"
2631,c1ccc(CCCCC[NH3+:12])cc1,O,0,0,10.44,[10.44],"[""['hunt_et_al']""]"
2632,NCCC[NH3+],O,-,3-aminopropylazanium,10.47,[10.47],"[""['Bases_pKa_values_MeCN_DMSO_THF_Water.pdf']""]"
2633,O=Cc1ncccc1[OH:9],O,0,0,6.95,[6.95],"[""['hunt_et_al']""]"
2634,CCOC(=O)c1ccc[nH+:9]c1N,O,0,0,4.73,[4.73],"[""['hunt_et_al']""]"
2635,CC(=O)c1ccc(-c2ccccc2[OH:16])cc1,O,0,0,10.78,[10.78],"[""['hunt_et_al']""]"
2636,CS(=O)(=O)c1ccccc1[NH3+:8],O,0,0,0.33,[0.33],"[""['hunt_et_al']""]"
2637,N#CC(=O)[OH:5],O,0,0,2.46,[2.46],"[""['hunt_et_al']""]"
2638,CC[C@H](C)c1cc([N+](=O)[O-])cc([N+](=O)[O-])c1[OH:17],O,0,0,4.62,[4.62],"[""['hunt_et_al']""]"
2639,CC(C)[NH3+],CC#N,,propan-2-ylazanium,18.3,[18.3],"[""['Bases_pKa_values_MeCN_DMSO_THF_Water.pdf']""]"
2640,c1ccc(C[SH:8])nc1,O,0,0,8.82,[8.82],"[""['hunt_et_al']""]"
2641,CC[NH2+:10]c1cccc(C)c1,O,0,0,5.25,[5.25],"[""['hunt_et_al']""]"
2642,c1ccc([NH2+]c2ccccc2)cc1,C1CCOC1,61236-17-7,diphenylazanium,0.6,[0.6],"[""['Bases_pKa_values_MeCN_DMSO_THF_Water.pdf']""]"
2643,Cc1cc(CN2Cc3ccccc3C[C@H]2C(=O)Nc2ccc(Cl)cc2Cl)ccc1OCC(=O)[OH:31],O,0,0,3.1,[3.1],"[""['hunt_et_al']""]"
2644,COC(=O)c1cc([OH:14])c2ccccc2c1,O,0,0,8.75,[8.75],"[""['hunt_et_al']""]"
2645,c1cc([NH3+:14])ccc1[C@@]12CCCC[C@@H]1C2,O,0,0,4.78,[4.78],"[""['hunt_et_al']""]"
2646,c1cc([OH:7])ncn1,O,0,0,8.63,[8.63],"[""['hunt_et_al']""]"
2647,COC(=O)C[C@@](C)(C(=O)[OH:15])c1ccccc1,O,0,0,4.15,[4.15],"[""['hunt_et_al']""]"
2648,Cc1c(C2(c3cc(C(C)C)c(O)c(Br)c3C)OS(=O)(=O)c3ccccc32)cc(C(C)C)c(O)c1Br,C(CCl)Cl,76-59-5,"2-bromo-4-[3-(3-bromo-4-hydroxy-2-methyl-5-propan-2-ylphenyl)-1,1-dioxo-2,16-benzoxathiol-3-yl]-3-methyl-6-propan-2-ylphenol",46.1,[46.1],"[""['leito_acids']""]"
2649,Cc1ccccc1CCC(=O)[OH:12],O,0,0,4.66,[4.66],"[""['hunt_et_al']""]"
2650,Cc1ccc(C(=O)N2C[C@H]3C[NH2+:27]C[C@@H](C2)O3)cc1NC(=O)CC12CC3CC(CC(C3)C1)C2,O,0,0,7.18,[7.18],"[""['hunt_et_al']""]"
2651,C[NH2+:3]C,O,0,0,10.73,[10.73],"[""['hunt_et_al']""]"
2652,c1cc(C[NH+:13]2CCCCC2)ccn1,O,0,0,7.88,[7.88],"[""['hunt_et_al']""]"
2653,O=C(Cc1ccc(Br)cc1)[OH:10],O,0,0,4.19,[4.19],"[""['hunt_et_al']""]"
2654,O=C(O)c1ccc([N+](=O)[O-])cc1[N+](=O)[O-],CC#N,610-30-0,"2,4-dinitrobenzoic acid",16.1,[16.1],"[""['MeCN_Acids_COSMO-RS_2008_Table.pdf']""]"
2655,C1CC[NH2+:5]C1,O,0,0,11.3,[11.3],"[""['hunt_et_al']""]"
2656,O=C(N[OH:10])c1ccccc1,O,0,0,8.88,[8.88],"[""['hunt_et_al']""]"
2657,CCCC(=O)O[OH:6],O,0,0,8.2,[8.2],"[""['hunt_et_al']""]"
2658,C[N@@H+:14](c1ccccc1)C1CCCCC1,O,0,0,6.35,[6.35],"[""['hunt_et_al']""]"
2659,C=CC[NH3+:4],O,0,0,9.49,[9.49],"[""['hunt_et_al']""]"