,Solute SMILES,Solvent SMILES,Solute CAS,Solute IUPAC,pKa (avg),pKa (all),Source (all)
3089,COc1cc2ccccc2cc1C(=O)O,O,0,0,3.8,[3.8],"['[""[\'hunt_et_al\']""]']"
3090,NS(=O)(=O)c1ccc(Cl)cc1,O,98-64-6,4-chlorobenzenesulfonamide,9.79,[9.79],"['[""[\'Ejoc202001649-sup-00001-misc_information.pdf\']""]']"
3091,C[C@H]([NH3+])c1ccc([N+](=O)[O-])cc1,O,0,0,8.5,[8.5],"['[""[\'hunt_et_al\']""]']"
3092,Cc1cc(C)c(/N=N/c2c(C)cc(O)cc2C)c(C)c1,O,0,0,8.2,[8.2],"['[""[\'hunt_et_al\']""]']"
3093,CS(=O)(=O)NC(=O)c1cc(Oc2ccc(C(F)(F)F)cc2Cl)ccc1[N+](=O)[O-],O,0,0,2.83,[2.83],"['[""[\'hunt_et_al\']""]']"
3094,Cc1ccccc1[NH2+]C1CCCC1,O,0,0,5.07,[5.07],"['[""[\'hunt_et_al\']""]']"
3095,c1ccc([NH2+][C@H]2CCc3ccccc32)cc1,O,0,0,1.8,[1.8],"['[""[\'hunt_et_al\']""]']"
3096,COc1ccccc1C(=[NH2+])c1ccccc1,O,0,0,7.29,[7.29],"['[""[\'hunt_et_al\']""]']"
3097,Cc1ccc([C@@H](O)C[NH2+]C(C)C)cc1,O,0,0,9.35,[9.35],"['[""[\'hunt_et_al\']""]']"
3098,Oc1cccc2ccncc12,O,0,0,8.42,[8.42],"['[""[\'hunt_et_al\']""]']"
3099,CC(C)[P@@H](=O)O,O,0,0,3.56,[3.56],"['[""[\'hunt_et_al\']""]']"
3100,O=C(O)CS,O,0,0,10.4,[10.4],"['[""[\'hunt_et_al\']""]']"
3101,CC1(C)S[C@@H]2[C@H](NC(=O)[C@H]([NH3+])c3ccccc3)C(=O)N2[C@H]1C(=O)O,O,0,0,5.105,"[2.51, 7.7]","['[""[\'hunt_et_al\']""]', '[""[\'hunt_et_al\']""]']"
3102,CCCCCC[NH2+]CCCCCC,O,0,0,11.01,[11.01],"['[""[\'hunt_et_al\']""]']"
3103,CC[NH2+]CC,O,0,0,10.98,"[10.98, 10.98]","['[""[\'hunt_et_al\']""]', '[""[\'Bases_pKa_values_MeCN_DMSO_THF_Water.pdf\']""]']"
3104,Cl,O,7647-01-0,chlorane,-5.9,"[-5.9, -5.9]","['[""[\'pKa_values_of_acids_and_bases_in_MeCN_DCE_DMSO_H2O_THF_C7_DME.pdf\', \'Ejoc202001649-sup-00001-misc_information.pdf\']""]']"
3105,[NH3+]c1ccc(C2CCCCC2)cc1,O,0,0,4.96,[4.96],"['[""[\'hunt_et_al\']""]']"
3106,O=[N+]([O-])c1ccc(S(=O)(=O)Nc2ccccc2)cc1,O,0,0,7.42,[7.42],"['[""[\'hunt_et_al\']""]']"
3107,COC(=O)C[C@](C)(Cc1ccc([N+](=O)[O-])cc1)C(=O)O,O,0,0,4.4,[4.4],"['[""[\'hunt_et_al\']""]']"
3108,C[NH+](C)CCN(Cc1ccsc1)c1ccccn1,O,0,0,8.9,[8.9],"['[""[\'hunt_et_al\']""]']"
3109,CSc1c(I)cc([NH3+])cc1I,O,0,0,1.15,[1.15],"['[""[\'hunt_et_al\']""]']"
3110,CC(C)[C@@H]1CC[C@@H](C)C[C@@H]1[NH3+],O,0,0,10.35,[10.35],"['[""[\'hunt_et_al\']""]']"
3111,C[NH+](C)CCC=C1c2ccccc2CCc2ccccc21,O,0,0,9.4,[9.4],"['[""[\'hunt_et_al\']""]']"
3112,C1=CC=[N+]C=C1,C1CCOC1,16969-45-2,pyridin-1-ium,5.5,[5.5],"['[""[\'pKa_values_of_acids_and_bases_in_MeCN_DCE_DMSO_H2O_THF_C7_DME.pdf\']""]']"
3113,CC(C)(C)N[P+](N1CCCC1)(N1CCCC1)N1CCCC1,O,-,(tert-butylamino)-tripyrrolidin-1-ylphosphanium,17.5,[17.5],"['[""[\'Bases_pKa_values_MeCN_DMSO_THF_Water.pdf\']""]']"
3114,COc1nc(C)nc(NC(=O)NS(=O)(=O)c2ccccc2Cl)n1,O,0,0,3.4,[3.4],"['[""[\'hunt_et_al\']""]']"
3115,CC(C)C[NH2+]CC(C)C,O,0,0,10.91,[10.91],"['[""[\'hunt_et_al\']""]']"
3116,COc1cccc(C[NH3+])c1,O,0,0,9.15,[9.15],"['[""[\'hunt_et_al\']""]']"
3117,C[C@H]([NH3+])c1ccccc1Cl,O,0,0,8.8,[8.8],"['[""[\'hunt_et_al\']""]']"
3118,Oc1ccnnc1,O,0,0,8.72,[8.72],"['[""[\'hunt_et_al\']""]']"
3119,O=C(O)c1ccc(Cl)c(Cl)c1,CC#N,51-44-5,"3,4-dichlorobenzoic acid",19.0,[19.0],"['[""[\'MeCN_Acids_COSMO-RS_2008_Table.pdf\']""]']"
3120,[NH3+]c1ccc(Cc2ccc([N+](=O)[O-])cc2)cc1,O,0,0,4.45,[4.45],"['[""[\'hunt_et_al\']""]']"
3121,O=C([O-])[C@H](Cc1ccccc1)N1CCC(C[NH+]2CCC(Oc3ccc(Cl)c(Cl)c3)CC2)CC1,O,0,0,9.25,[9.25],"['[""[\'hunt_et_al\']""]']"
3122,C[C@H]1CCCC(C)(C)[NH2+]1,O,0,0,11.21,[11.21],"['[""[\'hunt_et_al\']""]']"
3123,CC[NH+](CC)CCOC(=O)[C@@H](Cc1cccc2ccccc12)C[C@@H]1CCCO1,O,0,0,9.1,[9.1],"['[""[\'hunt_et_al\']""]']"
3124,CC(C)c1cc(C(C)C)c(-c2cc3ccccc3c3c2OP(=O)(O)Oc2c(-c4c(C(C)C)cc(C(C)C)cc4C(C)C)cc4ccccc4c2-3)c(C(C)C)c1,CC#N,791616-63-2,"13-hydroxy-10,16-bis[2,4,6-tri(propan-2-yl)phenyl]-12,14-dioxa-135-phosphapentacyclo[13.8.0.02,11.03,8.018,23]tricosa-1(15),2(11),3,5,7,9,16,18,20,22-decaene 13-oxide",13.615,"[13.63, 13.6]","['[""[\'Ejoc202001649-sup-00001-misc_information.pdf\', \'leito_acids\']""]']"
3125,O[C@@H](C(F)(F)C(F)(F)F)C(F)(F)C(F)(F)C(F)(F)F,O,0,0,10.48,[10.48],"['[""[\'hunt_et_al\']""]']"
3126,CC(C)[NH2+]C(C)C,O,0,0,10.96,[10.96],"['[""[\'hunt_et_al\']""]']"
3127,NS(=O)(=O)c1ccc([N+](=O)[O-])cc1,CN(C)C=O,6325-93-5,4-nitrobenzenesulfonamide,15.49,[15.49],"['[""[\'Ejoc202001649-sup-00001-misc_information.pdf\']""]']"
3128,C[NH+](C)CC(F)(F)F,O,0,0,4.8,[4.8],"['[""[\'hunt_et_al\']""]']"
3129,c1ccc(CCC[NH2+]C(CC2CCCCC2)CC2CCCCC2)cc1,O,0,0,7.8,[7.8],"['[""[\'hunt_et_al\']""]']"
3130,O=C(O)c1ccc([N+](=O)[O-])cc1,O,0,0,3.42,[3.42],"['[""[\'hunt_et_al\']""]']"
3131,[NH3+]c1cc(I)c2ccccc2c1,O,0,0,3.41,[3.41],"['[""[\'hunt_et_al\']""]']"
3132,O=C(O)[C@H]1CCCC[C@@H]1O,O,0,0,4.34,[4.34],"['[""[\'hunt_et_al\']""]']"
3133,Oc1cccnn1,O,0,0,10.5,[10.5],"['[""[\'hunt_et_al\']""]']"
3134,c1cc(C[NH+]2CCCCC2)ccn1,O,0,0,7.88,[7.88],"['[""[\'hunt_et_al\']""]']"
3135,Cc1ccc(S(N)(=O)=O)cc1,CC#N,70-55-3,4-methylbenzenesulfonamide,25.884999999999998,"[24.82, 26.95]","['[""[\'MeCN_Acids_COSMO-RS_2008_Table.pdf\', \'Ejoc202001649-sup-00001-misc_information.pdf\']""]']"
3136,OC(C(F)(F)C(F)(F)C(F)(F)F)C(F)(F)C(F)(F)C(F)(F)F,O,0,0,10.52,[10.52],"['[""[\'hunt_et_al\']""]']"
3137,O=C(O)/C=C\C(=O)O,O,0,0,2.0,[2.0],"['[""[\'hunt_et_al\']""]']"
3138,N#CCC[NH3+],O,0,0,7.75,[7.75],"['[""[\'hunt_et_al\']""]']"
3139,c1ccc([NH+](c2ccccc2)c2ccccc2)cc1,CC#N,-,triphenylazanium,1.28,[1.28],"['[""[\'Bases_pKa_values_MeCN_DMSO_THF_Water.pdf\']""]']"
3140,[NH3+]C12CC3CC(CC(C3)C1)C2,O,0,0,10.68,[10.68],"['[""[\'hunt_et_al\']""]']"
3141,CC(C)C[NH+]1CCCC1,O,0,0,10.38,[10.38],"['[""[\'hunt_et_al\']""]']"
3142,N#CC(c1c(F)c(F)c(F)c(F)c1F)c1c(Cl)c(F)c(Cl)c(F)c1Cl,CC#N,64934-69-6,"2-(2,3,4,5,6-pentafluorophenyl)-2-(2,4,6-trichloro-3,5-difluorophenyl)acetonitrile",20.13,"[20.13, 20.13, 20.13, 20.13]","['[""[\'pKa_values_of_acids_in_acetonitrile.pdf\']"", ""[\'MeCN_Acids_COSMO-RS_2008_Table.pdf\', \'Ejoc202001649-sup-00001-misc_information.pdf\', \'leito_acids\']""]']"
3143,C=CCc1c(C)nc(N)[nH+]c1C,O,0,0,5.1,[5.1],"['[""[\'hunt_et_al\']""]']"
3144,O=C(CCC[NH+]1CCC(O)(c2ccc(Cl)cc2)CC1)c1ccc(F)cc1,O,0,0,8.75,[8.75],"['[""[\'hunt_et_al\']""]']"
3145,Cc1nn(-c2ccccc2)c(NC(=O)NS(=O)(=O)c2ccc(Cl)cc2)c1C#N,O,0,0,2.3,[2.3],"['[""[\'hunt_et_al\']""]']"
3146,CC[C@@H](C)[NH2+][C@H](C)CC,O,0,0,10.91,[10.91],"['[""[\'hunt_et_al\']""]']"
3147,CC(C)[C@H]([NH3+])C(=O)[O-],O,0,0,9.74,[9.74],"['[""[\'hunt_et_al\']""]']"
3148,CC[C@@H](C)Nc1nc(C)cc(C)[nH+]1,O,0,0,5.12,[5.12],"['[""[\'hunt_et_al\']""]']"
3149,Cc1nc(N)[nH+]c(C)c1C(N)=O,O,0,0,3.31,[3.31],"['[""[\'hunt_et_al\']""]']"
3150,C[NH+](C)c1ccc([N+](C)(C)C)cc1,O,0,0,2.64,[2.64],"['[""[\'hunt_et_al\']""]']"
3151,OCC[NH+](CCO)CCc1ccccc1,O,0,0,7.6,[7.6],"['[""[\'hunt_et_al\']""]']"
3152,[NH3+]c1cccc2cc3ccccc3cc12,O,0,0,4.1,[4.1],"['[""[\'hunt_et_al\']""]']"
3153,[NH3+]CC(Cl)=C(Cl)Cl,O,0,0,7.28,[7.28],"['[""[\'hunt_et_al\']""]']"
3154,CC(C)(O)c1ccccc1CC[C@@H](SCC1(CC(=O)[O-])CC1)c1cccc(/C=C/c2ccc3ccc(Cl)cc3[nH+]2)c1,O,0,0,5.6,[5.6],"['[""[\'hunt_et_al\']""]']"
3155,CC1(C)CC(=O)CC(C)(C)[NH2+]1,O,0,0,7.9,[7.9],"['[""[\'hunt_et_al\']""]']"
3156,OCC[NH+](CCO)Cc1ccc(F)cc1,O,0,0,6.8,[6.8],"['[""[\'hunt_et_al\']""]']"
3157,CC(C)C[N@@H+](CC[N+]1(C)CCCCC1)c1ccccc1,O,0,0,3.02,[3.02],"['[""[\'hunt_et_al\']""]']"
3158,CC(=O)O,CS(=O)C,64-19-7,acetic acid,12.45,"[12.6, 12.3]","['[""[\'pKa_values_of_acids_and_bases_in_MeCN_DCE_DMSO_H2O_THF_C7_DME.pdf\', \'Ejoc202001649-sup-00001-misc_information.pdf\']""]']"
3159,Cc1ccccc1O,CC#N,95-48-7,2-methylphenol,27.5,[27.5],"['[""[\'MeCN_Acids_COSMO-RS_2008_Table.pdf\']""]']"
3160,CCOC(=O)c1cc([NH3+])ccc1[N+](=O)[O-],O,0,0,-0.11,[-0.11],"['[""[\'hunt_et_al\']""]']"
3161,O=S(=O)(NS(=O)(=NS(=O)(=O)C(F)(F)F)c1ccc(Cl)cc1)c1ccc(Cl)cc1,CC#N,174788-95-5,-,4.015000000000001,"[4.0, 4.03]","['[""[\'Ejoc202001649-sup-00001-misc_information.pdf\', \'leito_acids\']""]']"
3162,O=S(=O)(O)C(F)(F)F,CS(=O)C,1493-13-6,trifluoromethanesulfonic acid,-14.3,[-14.3],"['[""[\'pKa_values_of_acids_and_bases_in_MeCN_DCE_DMSO_H2O_THF_C7_DME.pdf\']""]']"
3163,COc1c(N2CC[NH2+][C@H](C)C2)c(F)cc2c(=O)c(C(=O)O)cn(C3CC3)c12,O,0,0,7.615,"[6.05, 9.18]","['[""[\'hunt_et_al\']""]', '[""[\'hunt_et_al\']""]']"
3164,O=C(O)c1ccccc1,CN(C)C=O,65-85-0,benzoic acid,12.3,[12.3],"['[""[\'Ejoc202001649-sup-00001-misc_information.pdf\']""]']"
3165,N#CC(C#N)c1c(C(F)(F)F)c(C(F)(F)F)c(C(F)(F)F)c(C(F)(F)F)c1C(F)(F)F,C(CCl)Cl,1018330-44-3,"2-[2,3,4,5,6-pentakis(trifluoromethyl)phenyl]propanedinitrile",42.2,[42.2],"['[""[\'leito_acids\']""]']"
3166,N#CC(c1ccc([N+](=O)[O-])cc1)c1ccc([N+](=O)[O-])cc1,CC#N,-,"2,2-bis(4-nitrophenyl)acetonitrile",19.0,[19.0],"['[""[\'MeCN_Acids_COSMO-RS_2008_Table.pdf\']""]']"
3167,COc1cc(OC)nc(Oc2cccc(Oc3nc(OC)cc(OC)n3)c2C(=O)O)n1,O,0,0,3.55,[3.55],"['[""[\'hunt_et_al\']""]']"
3168,Oc1c(F)c(F)cc(F)c1F,O,769-39-1,"2,3,5,6-tetrafluorophenol",5.67,[5.67],"['[""[\'Ejoc202001649-sup-00001-misc_information.pdf\']""]']"
3169,CC(C)[NH2+]C[Si](C)(C)C,O,0,0,10.8,[10.8],"['[""[\'hunt_et_al\']""]']"
3170,CN(C)CCCC[NH+](C)C,O,-,4-(dimethylamino)butyl-dimethylazanium,10.8,[10.8],"['[""[\'Bases_pKa_values_MeCN_DMSO_THF_Water.pdf\']""]']"
3171,Oc1cc(Cl)cc(Cl)c1,CC#N,591-35-5,"3,5-dichlorophenol",23.3,[23.3],"['[""[\'MeCN_Acids_COSMO-RS_2008_Table.pdf\']""]']"
3172,[NH3+]c1ccc(-c2cc(=O)c3c(ccc4ccccc43)o2)cc1,O,0,0,2.97,[2.97],"['[""[\'hunt_et_al\']""]']"
3173,CC1=CCCC[C@@H]1[NH3+],O,0,0,10.37,[10.37],"['[""[\'hunt_et_al\']""]']"
3174,[NH3+]c1ccc(OC(F)(F)C(F)F)cc1,O,0,0,3.98,[3.98],"['[""[\'hunt_et_al\']""]']"
3175,COc1cccc([NH3+])c1,O,0,0,4.2,[4.2],"['[""[\'hunt_et_al\']""]']"
3176,O=C(O)C(F)(F)F,O,0,0,0.3,[0.3],"['[""[\'hunt_et_al\']""]']"
3177,C[C@@H](CCCC(=O)O)c1ccccc1,O,0,0,4.8,[4.8],"['[""[\'hunt_et_al\']""]']"
3178,Clc1ccc(CO[C@H](Cn2cc[nH+]c2)c2ccc(Cl)cc2Cl)c(Cl)c1,O,0,0,6.4,[6.4],"['[""[\'hunt_et_al\']""]']"
3179,COC(=O)C1c2ccccc2-c2ccccc21,CC#N,3002-30-0,methyl 9H-fluorene-9-carboxylate,23.534,"[23.53, 23.53, 23.54, 23.54, 23.53]","['[""[\'MeCN_Acids_COSMO-RS_2008_Table.pdf\', \'a_unified_view_to_bronsted_acidity_scales.pdf\', \'pKa_values_of_acids_in_acetonitrile.pdf\', \'Ejoc202001649-sup-00001-misc_information.pdf\', \'leito_acids\']""]']"
3180,CCOC(=O)N1CCC([NH2+]c2cc(Cl)ccn2)CC1,O,0,0,5.3,[5.3],"['[""[\'hunt_et_al\']""]']"
3181,COC(=O)[C@@H]([C@H](C(=O)O)C(C)(C)C)C(C)(C)C,O,0,0,5.57,[5.57],"['[""[\'hunt_et_al\']""]']"
3182,c1ccc([C@@H]2C[NH+]3CCC2CC3)cc1,O,0,0,10.23,[10.23],"['[""[\'hunt_et_al\']""]']"
3183,O=C(O)c1ccc2ncccc2c1,O,0,0,0.1,[0.1],"['[""[\'hunt_et_al\']""]']"
3184,Oc1c(F)c(F)c(-c2c(F)c(F)c(F)c(F)c2F)c(F)c1F,CC#N,2894-87-3,"2,3,5,6-tetrafluoro-4-(2,3,4,5,6-pentafluorophenyl)phenol",18.105,"[18.11, 18.1, 18.1, 18.11]","['[""[\'MeCN_Acids_COSMO-RS_2008_Table.pdf\', \'pKa_values_of_acids_in_acetonitrile.pdf\', \'Ejoc202001649-sup-00001-misc_information.pdf\', \'leito_acids\']""]']"
3185,C[NH+](C)[C@@H]1CCCC[C@H]1O,O,0,0,10.32,[10.32],"['[""[\'hunt_et_al\']""]']"
3186,CC(=O)Nc1c(F)c(F)c(F)c(F)c1F,CS(=O)C,653-22-5,"N-(2,3,4,5,6-pentafluorophenyl)acetamide",14.3,[14.3],"['[""[\'Ejoc202001649-sup-00001-misc_information.pdf\']""]']"
3187,Cc1cccc(O)c1C,O,0,0,10.5,[10.5],"['[""[\'hunt_et_al\']""]']"
3188,N[C@@H](CCC(=O)N[C@@H](CS)C(=O)NCC(=O)O)C(=O)O,O,0,0,8.56,[8.56],"['[""[\'hunt_et_al\']""]']"
3189,SCc1ccccc1,O,0,0,9.43,[9.43],"['[""[\'hunt_et_al\']""]']"
3190,CCN(CC)CCNC(=O)c1ccc(NS(C)(=O)=O)cc1,O,0,0,7.52,[7.52],"['[""[\'hunt_et_al\']""]']"
3191,O=[N+]([O-])c1cc(O)cc([N+](=O)[O-])c1,O,0,0,6.69,[6.69],"['[""[\'hunt_et_al\']""]']"
3192,CCC(=O)C(CC[NH+](C)C)(c1ccccc1)c1ccccc1,O,0,0,9.18,[9.18],"['[""[\'hunt_et_al\']""]']"
3193,O=C(Nc1ccc(Cl)c(S(=O)(=O)N2CC[NH2+]CC2)c1O)Nc1cccc(F)c1Cl,O,0,0,7.2,"[8.5, 5.9]","['[""[\'hunt_et_al\']""]', '[""[\'hunt_et_al\']""]']"
3194,COc1ccc(C(=[NH2+])c2ccccc2)c(OC)c1,O,0,0,8.3,[8.3],"['[""[\'hunt_et_al\']""]']"
3195,O=[N+]([O-])c1ccc([NH+]2CCCCC2)c([N+](=O)[O-])c1,O,0,0,-0.38,[-0.38],"['[""[\'hunt_et_al\']""]']"
3196,O=C(O)C(CO)(CO)CO,O,0,0,4.46,[4.46],"['[""[\'hunt_et_al\']""]']"
3197,O=C1c2ccc(O)cc2C(=O)c2ccc(O)cc21,O,0,0,6.22,[6.22],"['[""[\'hunt_et_al\']""]']"
3198,C[C@@H](O)C[N@H+](CCO)C(C)(C)C,O,0,0,9.2,[9.2],"['[""[\'hunt_et_al\']""]']"
3199,CCCC[NH+]1CCCC1,O,0,0,10.36,[10.36],"['[""[\'hunt_et_al\']""]']"
3200,CCCOc1cccc(C(=O)O)c1,O,0,0,4.2,[4.2],"['[""[\'hunt_et_al\']""]']"
3201,O=C(O)c1cc(O)c(O)c(O)c1,O,0,0,4.21,[4.21],"['[""[\'hunt_et_al\']""]']"
3202,C=CC[NH2+]CC=C,O,0,0,9.29,[9.29],"['[""[\'hunt_et_al\']""]']"
3203,O=S(=O)(NS(=O)(=O)C(F)(F)C(F)(F)C(F)(F)F)C(F)(F)C(F)(F)C(F)(F)F,C(CCl)Cl,152894-12-7,"1,1,2,2,3,3,3-heptafluoro-N-(1,1,2,2,3,3,3-heptafluoropropylsulfonyl)propane-1-sulfonamide",32.7,[32.7],"['[""[\'leito_acids\']""]']"
3204,COC(=O)[C@@](C)(CC(=O)O)Cc1ccc([N+](=O)[O-])cc1,O,0,0,4.45,[4.45],"['[""[\'hunt_et_al\']""]']"
3205,[NH3+]c1cccc2ccccc12,CC#N,70450-98-5,naphthalen-1-ylazanium,9.77,[9.77],"['[""[\'pKa_values_of_nitrogen_heterocycles.pdf\']""]']"
3206,O=C(O)Cc1ccc([N+](=O)[O-])cc1[N+](=O)[O-],O,0,0,3.502,[3.502],"['[""[\'hunt_et_al\']""]']"
3207,O=C(c1cc([N+](=O)[O-])cc(C(F)(F)F)c1)N(O)c1ccccc1,O,0,0,7.85,[7.85],"['[""[\'hunt_et_al\']""]']"
3208,CC(=O)CS,O,0,0,7.86,[7.86],"['[""[\'hunt_et_al\']""]']"
3209,C=C(CC)C(=O)c1ccc(OCC(=O)O)c(Cl)c1Cl,O,0,0,3.1,[3.1],"['[""[\'hunt_et_al\']""]']"
3210,COc1cccc(C[NH+](C)C)c1,O,0,0,9.04,[9.04],"['[""[\'hunt_et_al\']""]']"
3211,[NH3+]CCc1c[nH]c2ccccc12,O,0,0,10.2,[10.2],"['[""[\'hunt_et_al\']""]']"
3212,O=[N+]([O-])c1ccc(O)cc1[N+](=O)[O-],CC#N,577-71-9,"3,4-dinitrophenol",17.9,[17.9],"['[""[\'MeCN_Acids_COSMO-RS_2008_Table.pdf\']""]']"
3213,CN(C)[P+](Nc1ccccc1)(N(C)C)N(C)C,CS(=O)C,-,anilino-tris(dimethylamino)phosphanium,11.1,[11.1],"['[""[\'Bases_pKa_values_MeCN_DMSO_THF_Water.pdf\']""]']"
3214,O=[N+]([O-])c1ccc([NH2+]Cc2ccccc2)c([N+](=O)[O-])c1,O,0,0,-4.9,[-4.9],"['[""[\'hunt_et_al\']""]']"
3215,CCn1cc(C(=O)[O-])c(=O)c2cc(F)c(N3CC[NH2+]CC3)nc21,O,0,0,8.76,[8.76],"['[""[\'hunt_et_al\']""]']"
3216,[NH2+]=C(c1ccccc1)c1ccccc1Cl,O,0,0,5.59,[5.59],"['[""[\'hunt_et_al\']""]']"
3217,CC(C)CC[NH3+],O,0,0,10.6,[10.6],"['[""[\'hunt_et_al\']""]']"
3218,COc1ccc(-c2cc3ccccc3c3c2OP(=O)(NS(=O)(=O)C(F)(F)F)Oc2c(-c4ccc(OC)cc4)cc4ccccc4c2-3)cc1,CC#N,1486486-92-3,-,6.375,"[6.35, 6.4]","['[""[\'Ejoc202001649-sup-00001-misc_information.pdf\', \'leito_acids\']""]']"
3219,O=C(O)[C@H](O)c1cccc(Br)c1,O,0,0,3.23,[3.23],"['[""[\'hunt_et_al\']""]']"
3220,O=C(O)c1ccc(Cl)c([N+](=O)[O-])c1,CC#N,96-99-1,4-chloro-3-nitrobenzoic acid,18.5,[18.5],"['[""[\'MeCN_Acids_COSMO-RS_2008_Table.pdf\']""]']"
3221,Cc1cc(C)[nH+]c(N)n1,O,0,0,5.0,[5.0],"['[""[\'hunt_et_al\']""]']"