,Solute SMILES,Solvent SMILES,Solute CAS,Solute IUPAC,pKa (avg),pKa (all),Source (all)
1623,COC(=O)c1ccc[nH+]c1N,O,0,0,4.78,[4.78],"['[""[\'hunt_et_al\']""]']"
1624,C[C@@H](CCc1ccccc1)NC[C@H](O)c1ccc(O)c(C(N)=O)c1,O,0,0,7.3,[7.3],"['[""[\'hunt_et_al\']""]']"
1625,NCC[NH3+],CS(=O)C,-,2-aminoethylazanium,11.1,[11.1],"['[""[\'Bases_pKa_values_MeCN_DMSO_THF_Water.pdf\']""]']"
1626,C[NH+](C)C[C@H](O)c1ccc(O)cc1,O,0,0,9.56,[9.56],"['[""[\'hunt_et_al\']""]']"
1627,C[NH+](C)[C@@H]1CCc2ccccc2C1,O,0,0,9.5,[9.5],"['[""[\'hunt_et_al\']""]']"
1628,Fc1c(F)c(F)c(Nc2c(F)c(F)c(F)c(F)c2F)c(F)c1F,CC#N,1535-92-8,"2,3,4,5,6-pentafluoro-N-(2,3,4,5,6-pentafluorophenyl)aniline",23.98,[23.98],"['[""[\'Ejoc202001649-sup-00001-misc_information.pdf\']""]']"
1629,Cc1ccc([NH+](C)C)cc1,O,0,0,5.627,[5.627],"['[""[\'hunt_et_al\']""]']"
1630,CC[NH2+]c1ccc([N+](=O)[O-])cc1,O,0,0,0.94,[0.94],"['[""[\'hunt_et_al\']""]']"
1631,Oc1c(Br)cc(Br)cc1Br,O,118-79-6,"2,4,6-tribromophenol",6.1,[6.1],"['[""[\'Ejoc202001649-sup-00001-misc_information.pdf\']""]']"
1632,Oc1ccc(F)cc1,O,0,0,9.95,[9.95],"['[""[\'hunt_et_al\']""]']"
1633,CCCCC[C@@H](C)[NH2+]C,O,0,0,10.82,[10.82],"['[""[\'hunt_et_al\']""]']"
1634,[NH3+]c1ccc(F)c([N+](=O)[O-])c1,O,0,0,2.44,[2.44],"['[""[\'hunt_et_al\']""]']"
1635,[NH3+]c1ccccc1I,O,0,0,2.6,[2.6],"['[""[\'hunt_et_al\']""]']"
1636,C[NH+](C)c1ccc(Br)cc1,O,0,0,4.232,[4.232],"['[""[\'hunt_et_al\']""]']"
1637,COc1ccc(OC)c([NH3+])c1,O,0,0,3.93,[3.93],"['[""[\'hunt_et_al\']""]']"
1638,CC(=O)c1cccc(-c2ccccc2O)c1,O,0,0,10.91,[10.91],"['[""[\'hunt_et_al\']""]']"
1639,C[C@H]1COc2c(N3CCN(C)CC3)c(F)cc3c(=O)c(C(=O)O)cn1c23,O,0,0,6.06,[6.06],"['[""[\'hunt_et_al\']""]']"
1640,Nc1cnccc1O,O,0,0,11.38,[11.38],"['[""[\'hunt_et_al\']""]']"
1641,Oc1cc(-c2ccccc2)ccc1Cl,O,0,0,8.07,[8.07],"['[""[\'hunt_et_al\']""]']"
1642,Cc1[nH+]cc([N+](=O)[O-])n1CCO,O,0,0,2.51,[2.51],"['[""[\'hunt_et_al\']""]']"
1643,CCOC(=O)C(C#N)c1c(F)c(F)cc(F)c1F,CS(=O)C,55852-22-7,"ethyl 2-cyano-2-(2,3,5,6-tetrafluorophenyl)acetate",4.9,[4.9],"['[""[\'Ejoc202001649-sup-00001-misc_information.pdf\']""]']"
1644,Oc1c(C(F)(F)F)c(C(F)(F)F)c(C(F)(F)F)c(C(F)(F)F)c1C(F)(F)F,CS(=O)C,723294-91-5,"2,3,4,5,6-pentakis(trifluoromethyl)phenol",3.1,[3.1],"['[""[\'Ejoc202001649-sup-00001-misc_information.pdf\']""]']"
1645,Oc1ccccc1Cc1ccccc1O,O,0,0,7.5,[7.5],"['[""[\'hunt_et_al\']""]']"
1646,CCOc1ccc([NH3+])cc1,O,0,0,5.2,[5.2],"['[""[\'hunt_et_al\']""]']"
1647,C1C[NH+]2CCN1CC2,O,49623-77-0,4-aza-1-azoniabicyclo[2.2.2]octane,8.82,[8.82],"['[""[\'Bases_pKa_values_MeCN_DMSO_THF_Water.pdf\']""]']"
1648,CC(C)(C)[N@H+]1CCCC(=O)[C@H](O)CCC1,O,0,0,7.6,[7.6],"['[""[\'hunt_et_al\']""]']"
1649,Cc1ccc(S(=O)(=O)NS(=O)(=NS(=O)(=O)C(F)(F)F)c2ccc(Cl)cc2)cc1,C(CCl)Cl,174788-93-3,N-(4-chloro-N-((trifluoromethyl)sulfonyl)phenylsulfonimidoyl)-4-methylbenzenesulfonamide,38.0,"[38.0, 38.0]","['[""[\'Ejoc202001649-sup-00001-misc_information.pdf\', \'leito_acids\']""]']"
1650,CC(C)[NH2+]C[C@H](O)c1ccc(Cl)c(Cl)c1,O,0,0,9.27,[9.27],"['[""[\'hunt_et_al\']""]']"
1651,CC(C)[NH2+]C[C@H](O)c1cccc(I)c1,O,0,0,9.36,[9.36],"['[""[\'hunt_et_al\']""]']"
1652,CCCNc1nccc[nH+]1,O,0,0,4.09,[4.09],"['[""[\'hunt_et_al\']""]']"
1653,Oc1ccc(Br)cc1,O,0,0,9.34,[9.34],"['[""[\'hunt_et_al\']""]']"
1654,CCC(CC)NC(=O)c1c(C)nn(C(C)C)c1NS(=O)(=O)c1ccc(C)cc1,O,0,0,4.7,[4.7],"['[""[\'hunt_et_al\']""]']"
1655,Oc1cccc2cccnc12,O,0,0,9.81,[9.81],"['[""[\'hunt_et_al\']""]']"
1656,CCOC(=O)C(C[C@H](C)[NH+](C)C)(c1ccccc1)c1ccccc1,O,0,0,10.12,[10.12],"['[""[\'hunt_et_al\']""]']"
1657,C1NCC2C[NH2+]CC1C2,CC#N,,,21.56,[21.56],"['[""[\'Bases_pKa_values_MeCN_DMSO_THF_Water.pdf\']""]']"
1658,CCOC(=O)COc1ccc([NH3+])cc1,O,0,0,5.09,[5.09],"['[""[\'hunt_et_al\']""]']"
1659,O=C1C[C@H](S)C(=O)N1,O,0,0,6.7,[6.7],"['[""[\'hunt_et_al\']""]']"
1660,C[NH2+]c1ccc([N+](=O)[O-])cc1,O,0,0,0.55,[0.55],"['[""[\'hunt_et_al\']""]']"
1661,Oc1nc(O)nc(O)n1,O,0,0,6.78,[6.78],"['[""[\'hunt_et_al\']""]']"
1662,Cn1c(=O)c2nc[nH]c2n(C)c1=O,O,0,0,8.51,[8.51],"['[""[\'hunt_et_al\']""]']"
1663,CC(C=CC1=C(C)CCCC1(C)C)=CC=CC(C)=CC(=O)O,CC#N,302-79-4,"3,7-dimethyl-9-(2,6,6-trimethylcyclohexen-1-yl)nona-2,4,6,8-tetraenoic acid",22.776666666666667,"[22.78, 22.78, 22.77]","['[""[\'pKa_values_of_acids_in_acetonitrile.pdf\', \'Ejoc202001649-sup-00001-misc_information.pdf\', \'leito_acids\']""]']"
1664,CC(C)OP(=O)(OC(C)C)SCC[NH+](C)C,O,0,0,7.7,[7.7],"['[""[\'hunt_et_al\']""]']"
1665,Clc1cccc[nH+]1,CC#N,,2-chloropyridin-1-ium,6.79,[6.79],"['[""[\'pKa_values_of_nitrogen_heterocycles.pdf\']""]']"
1666,Oc1cccc2scnc12,O,0,0,8.85,[8.85],"['[""[\'hunt_et_al\']""]']"
1667,c1ccc2[nH+]c(-c3cscn3)[nH]c2c1,CC#N,,"4-(1H-benzimidazol-3-ium-2-yl)-1,3-thiazole",12.42,[12.42],"['[""[\'pKa_values_of_nitrogen_heterocycles.pdf\']""]']"
1668,CC[NH+](CC)c1ccc(C)cc1,O,0,0,7.13,[7.13],"['[""[\'hunt_et_al\']""]']"
1669,[NH3+]Cc1c(F)c(F)c(F)c(F)c1F,O,0,0,7.67,[7.67],"['[""[\'hunt_et_al\']""]']"
1670,CC[NH+](CC)CCOC(=O)c1ccc(N)cc1,O,0,0,9.1,[9.1],"['[""[\'hunt_et_al\']""]']"
1671,O=C(O)c1ccccc1O,O,0,0,2.78,[2.78],"['[""[\'hunt_et_al\']""]']"
1672,NS(=O)(=O)c1ccc(Cl)c(Cl)c1,CC#N,23815-28-3,"3,4-dichlorobenzenesulfonamide",23.29,[23.29],"['[""[\'MeCN_Acids_COSMO-RS_2008_Table.pdf\']""]']"
1673,O=C(O)c1cc(Cl)cc(Cl)c1,CC#N,51-36-5,"3,5-dichlorobenzoic acid",18.7,[18.7],"['[""[\'MeCN_Acids_COSMO-RS_2008_Table.pdf\']""]']"
1674,Oc1c(F)c(F)c(F)c(F)c1F,CS(=O)C,771-61-9,"2,3,4,5,6-pentafluorophenol",8.9,[8.9],"['[""[\'Ejoc202001649-sup-00001-misc_information.pdf\']""]']"
1675,CCCCOc1cccc(C(=O)O)c1,O,0,0,4.25,[4.25],"['[""[\'hunt_et_al\']""]']"
1676,NS(=O)(=O)c1cccc(C(F)(F)F)c1,O,672-58-2,3-(trifluoromethyl)benzenesulfonamide,9.69,[9.69],"['[""[\'Ejoc202001649-sup-00001-misc_information.pdf\']""]']"
1677,c1ccc2c[nH+]ccc2c1,O,-,isoquinolin-2-ium,5.46,"[5.46, 5.46]","['[""[\'pKa_values_of_nitrogen_heterocycles.pdf\', \'Bases_pKa_values_MeCN_DMSO_THF_Water.pdf\']""]']"
1678,Oc1c(Cl)cc(Cl)c(Cl)c1Cl,O,0,0,5.22,[5.22],"['[""[\'hunt_et_al\']""]']"
1679,[NH3+]c1ccc2cc([N+](=O)[O-])ccc2c1,O,0,0,2.62,[2.62],"['[""[\'hunt_et_al\']""]']"
1680,Cc1ccc(O)c(C)c1,O,0,0,10.45,[10.45],"['[""[\'hunt_et_al\']""]']"
1681,C=C(C)C(=O)O,O,0,0,4.66,[4.66],"['[""[\'hunt_et_al\']""]']"
1682,Cc1ccc(S(=O)(=O)NS(=O)(=O)C(F)(F)F)cc1,CC#N,215395-07-6,4-methyl-N-(trifluoromethylsulfonyl)benzenesulfonamide,5.906000000000001,"[6.17, 5.86, 5.82, 5.82, 5.86]","['[""[\'MeCN_Acids_COSMO-RS_2008_Table.pdf\', \'DCE_2011_pKa_Table_MeCN.pdf\', \'Ejoc202001649-sup-00001-misc_information.pdf\']"", ""[\'pKa_values_of_acids_in_acetonitrile.pdf\', \'leito_acids\']""]']"
1683,C[NH2+][C@H]1CCCC[C@@H]1Cl,O,0,0,9.85,[9.85],"['[""[\'hunt_et_al\']""]']"
1684,O=C1O[C@H]([C@@H](O)CO)C(O)=C1[O-],O,0,0,11.57,[11.57],"['[""[\'hunt_et_al\']""]']"
1685,Oc1ccc2cnccc2c1,O,0,0,9.17,[9.17],"['[""[\'hunt_et_al\']""]']"
1686,CCOC(=O)[C@H](CCc1ccccc1)[NH2+][C@@H](C)C(=O)N1CCC[C@H]1C(=O)O,O,0,0,4.75,"[3.1, 6.4]","['[""[\'hunt_et_al\']""]', '[""[\'hunt_et_al\']""]']"
1687,C[n+]1cc(O)c2ccccc2c1,O,0,0,4.9,[4.9],"['[""[\'hunt_et_al\']""]']"
1688,C[N@H+](Cc1ccccc1)CC(c1ccccc1)c1ccccc1,O,0,0,7.5,[7.5],"['[""[\'hunt_et_al\']""]']"
1689,CC(C)(C)CC(C)(C)[NH3+],O,0,0,10.73,[10.73],"['[""[\'hunt_et_al\']""]']"
1690,c1cncc([C@H]2CCCC[NH2+]2)c1,O,0,0,11.0,[11.0],"['[""[\'hunt_et_al\']""]']"
1691,[NH3+]c1ccc2ccccc2c1[N+](=O)[O-],O,0,0,-0.85,[-0.85],"['[""[\'hunt_et_al\']""]']"
1692,N#CC(C#N)c1c(F)c(F)c2c(F)c(F)c(F)c(F)c2c1F,CC#N,62325-35-3,"2-(1,3,4,5,6,7,8-heptafluoronaphthalen-2-yl)propanedinitrile",12.23,"[12.23, 12.23, 12.23, 12.23]","['[""[\'MeCN_Acids_COSMO-RS_2008_Table.pdf\', \'a_unified_view_to_bronsted_acidity_scales.pdf\', \'Ejoc202001649-sup-00001-misc_information.pdf\', \'leito_acids\']""]']"
1693,CC[C@H]([NH3+])C(=O)N[C@H](C#N)Cc1ccc(-c2ccccc2)cc1,O,0,0,7.3,[7.3],"['[""[\'hunt_et_al\']""]']"
1694,[NH3+]c1ccc(F)cc1[N+](=O)[O-],O,0,0,-0.44,[-0.44],"['[""[\'hunt_et_al\']""]']"
1695,N#CC(C#N)=C(c1cc(C(F)(F)F)cc(C(F)(F)F)c1)C(C#N)C#N,C(CCl)Cl,1261286-79-6,,33.0,[33.0],"['[""[\'leito_acids\']""]']"
1696,OCC[NH2+]C(CO)(CO)CO,O,0,0,7.83,[7.83],"['[""[\'hunt_et_al\']""]']"
1697,COc1c(N2CCN[C@H](C)C2)c(F)cc2c(=O)c(C(=O)O)cn(C3CC3)c12,O,0,0,6.05,[6.05],"['[""[\'hunt_et_al\']""]']"
1698,C1C[NH2+]CCN1,O,8057-14-5,piperazin-1-ium,9.72,[9.72],"['[""[\'Bases_pKa_values_MeCN_DMSO_THF_Water.pdf\']""]']"
1699,CC[C@@](C)(S)[C@H]([NH3+])C(=O)[O-],O,0,0,8.1,[8.1],"['[""[\'hunt_et_al\']""]']"
1700,CC[C@H]1C[N@@H+]2CC[C@H]1C[C@H]2[C@H](O)c1ccnc2ccc(OC)cc12,O,0,0,9.1,[9.1],"['[""[\'hunt_et_al\']""]']"
1701,CCOc1ccc(N/C(C)=[NH+]/c2ccc(OCC)cc2)cc1,O,0,0,9.3,[9.3],"['[""[\'hunt_et_al\']""]']"
1702,CC(C)(S)[C@@H]([NH3+])C(=O)[O-],O,0,0,7.9,[7.9],"['[""[\'hunt_et_al\']""]']"
1703,CCOC(=O)C(C#N)c1c(F)c(F)nc(F)c1F,CC#N,55810-61-2,"ethyl 2-cyano-2-(2,3,5,6-tetrafluoropyridin-4-yl)acetate",14.8975,"[14.9, 14.9, 14.9, 14.89]","['[""[\'a_unified_view_to_bronsted_acidity_scales.pdf\', \'leito_acids\']"", ""[\'MeCN_Acids_COSMO-RS_2008_Table.pdf\', \'Ejoc202001649-sup-00001-misc_information.pdf\']""]']"
1704,Oc1ncnc2ccccc12,O,0,0,9.87,[9.87],"['[""[\'hunt_et_al\']""]']"
1705,N#Cc1ccc(C[C@@H](C(=O)O)N2CCC(C[NH+]3CCC(Oc4ccc(Cl)c(Cl)c4)CC3)CC2)cc1,O,0,0,8.9,[8.9],"['[""[\'hunt_et_al\']""]']"
1706,O=C(O)CCO,CC#N,503-66-2,3-hydroxypropanoic acid,21.0,[21.0],"['[""[\'MeCN_Acids_COSMO-RS_2008_Table.pdf\']""]']"
1707,[NH3+]c1ccc2c(c1)Cc1ccccc1-2,O,0,0,4.64,[4.64],"['[""[\'hunt_et_al\']""]']"
1708,O=COO,O,0,0,7.1,[7.1],"['[""[\'hunt_et_al\']""]']"
1709,CCC1=[NH+][C@@H](CC)CS1,O,0,0,5.36,[5.36],"['[""[\'hunt_et_al\']""]']"
1710,C[NH2+]CCCCc1ccccc1,O,0,0,10.8,[10.8],"['[""[\'hunt_et_al\']""]']"
1711,N#CC(c1c(F)c(F)nc(F)c1F)c1c(F)c(F)nc(F)c1F,CS(=O)C,64934-72-1,"2,2-bis(2,3,5,6-tetrafluoropyridin-4-yl)acetonitrile",2.4,[2.4],"['[""[\'a_unified_view_to_bronsted_acidity_scales.pdf\']""]']"
1712,N#CC(C#N)C#N,C(CCl)Cl,454-50-2,methanetricarbonitrile,38.6,"[38.6, 38.6]","['[""[\'Ejoc202001649-sup-00001-misc_information.pdf\', \'leito_acids\']""]']"
1713,CC(=O)C[C@H](c1ccccc1)c1c(O)c2ccccc2oc1=O,O,0,0,5.1,[5.1],"['[""[\'hunt_et_al\']""]']"
1714,Cc1cc2ccccc2c(C(=O)O)c1C,O,0,0,3.28,[3.28],"['[""[\'hunt_et_al\']""]']"
1715,[NH3+]c1ccc(C=O)cc1,O,0,0,1.76,[1.76],"['[""[\'hunt_et_al\']""]']"
1716,Cc1ccc(C(=O)NS(=O)(=O)C(F)(F)F)cc1,CC#N,343337-70-2,4-methyl-N-(trifluoromethylsulfonyl)benzamide,11.46,"[11.46, 11.46, 11.46]","['[""[\'MeCN_Acids_COSMO-RS_2008_Table.pdf\', \'Ejoc202001649-sup-00001-misc_information.pdf\', \'leito_acids\']""]']"
1717,Nc1ccc2nccnc2[nH+]1,O,0,0,4.25,[4.25],"['[""[\'hunt_et_al\']""]']"
1718,CCCC[C@@H](CC)COP(=O)(O)OC[C@H](CC)CCCC,O,0,0,2.85,[2.85],"['[""[\'hunt_et_al\']""]']"
1719,[NH3+]CCc1cscn1,O,0,0,9.48,[9.48],"['[""[\'hunt_et_al\']""]']"
1720,Oc1ccc(C2CCCCC2)cc1Cl,O,0,0,8.66,[8.66],"['[""[\'hunt_et_al\']""]']"
1721,COC(=O)CS,O,0,0,8.08,[8.08],"['[""[\'hunt_et_al\']""]']"
1722,N#Cc1ccc2[nH]c(-c3ccc(F)cc3)c(CCCC(=O)NS(N)(=O)=O)c2c1,O,0,0,5.9,[5.9],"['[""[\'hunt_et_al\']""]']"
1723,Oc1c(/N=N/c2ccccn2)ccc2ccccc12,O,0,0,7.9,[7.9],"['[""[\'hunt_et_al\']""]']"
1724,[NH3+]C[C@H](Oc1cc(Cl)ccc1Cl)c1ccccc1,O,0,0,8.5,[8.5],"['[""[\'hunt_et_al\']""]']"
1725,Cc1ccccc1[NH+](C)C,O,0,0,6.11,[6.11],"['[""[\'hunt_et_al\']""]']"
1726,c1ccc(CCC[NH2+]C(Cc2ccccc2)Cc2ccccc2)cc1,O,0,0,7.2,[7.2],"['[""[\'hunt_et_al\']""]']"
1727,Cc1cccc(CCC(=O)O)c1,O,0,0,4.68,[4.68],"['[""[\'hunt_et_al\']""]']"
1728,Cc1cc([NH3+])cc(C)c1[N+](=O)[O-],O,0,0,2.59,[2.59],"['[""[\'hunt_et_al\']""]']"
1729,CC[C@H](S)C(=O)O,O,0,0,3.53,[3.53],"['[""[\'hunt_et_al\']""]']"
1730,CC(=O)NC[C@H]1CN(c2ccc([NH+]3CCOCC3)c(F)c2)C(=O)O1,O,0,0,6.81,[6.81],"['[""[\'hunt_et_al\']""]']"
1731,C[Si](C)(C)C[NH2+]c1ccccc1,O,0,0,5.3,[5.3],"['[""[\'hunt_et_al\']""]']"
1732,Oc1cccc(Cl)c1Cl,O,0,0,7.7,[7.7],"['[""[\'hunt_et_al\']""]']"
1733,O=[N+]([O-])c1ccc(S(=O)(=O)NS(=O)(=NS(=O)(=O)C(F)(F)F)c2ccc(Cl)cc2)cc1,CC#N,174788-97-7,,3.33,[3.33],"['[""[\'leito_acids\']""]']"
1734,C[N@@H+]1CCc2cccc3c2[C@H]1Cc1ccc(O)c(O)c1-3,O,0,0,8.92,[8.92],"['[""[\'hunt_et_al\']""]']"
1735,[NH3+]c1ccc(S(=O)(=O)C(F)(F)F)cc1,O,0,0,-0.01,[-0.01],"['[""[\'hunt_et_al\']""]']"
1736,N#Cc1ccc(O)cc1,CC#N,767-00-0,4-hydroxybenzonitrile,22.7,[22.7],"['[""[\'MeCN_Acids_COSMO-RS_2008_Table.pdf\']""]']"
1737,C[NH2+]C,O,49784-85-2,dimethylazanium,10.685,"[10.64, 10.73]","['[""[\'Bases_pKa_values_MeCN_DMSO_THF_Water.pdf\']""]', '[""[\'hunt_et_al\']""]']"
1738,O=C(O)[C@H](c1ccccc1)[NH+]1CCC(N2CCC(Oc3ccc(Cl)c(Cl)c3)CC2)CC1,O,0,0,9.1,[9.1],"['[""[\'hunt_et_al\']""]']"
1739,CCC(CC)NC(=O)c1cnn(-c2ccccc2)c1NS(=O)(=O)C1CCCC1,O,0,0,4.5,[4.5],"['[""[\'hunt_et_al\']""]']"
1740,COc1nc(C)nc(NC(=O)NS(=O)(=O)c2ccccc2CCC(F)(F)F)n1,O,0,0,3.76,[3.76],"['[""[\'hunt_et_al\']""]']"
1741,O=[N+]([O-])C([N+](=O)[O-])[N+](=O)[O-],CC#N,517-25-9,trinitromethane,7.3,[7.3],"['[""[\'MeCN_Acids_COSMO-RS_2008_Table.pdf\']""]']"
1742,O=C([O-])[C@H](Cc1ccccc1)[NH+]1CCC(CN2CCC(Oc3ccc(Cl)c(Cl)c3)CC2)CC1,O,0,0,9.25,[9.25],"['[""[\'hunt_et_al\']""]']"
1743,O=C(O)/C=C/c1ccc[nH+]c1,O,0,0,4.4,"[4.4, 4.4]","['[""[\'hunt_et_al\']""]', '[""[\'hunt_et_al\']""]']"
1744,CCCCCC(=O)O,O,0,0,4.849,[4.849],"['[""[\'hunt_et_al\']""]']"
1745,[NH3+]c1cc(I)cc(I)c1,O,0,0,2.368,[2.368],"['[""[\'hunt_et_al\']""]']"
1746,N#CC(c1c(F)c(F)nc(F)c1F)c1c(F)c(F)c(F)c(F)c1F,C(CCl)Cl,62325-51-3,"2-(2,3,4,5,6-pentafluorophenyl)-2-(2,3,5,6-tetrafluoropyridin-4-yl)acetonitrile",50.5,"[50.5, 50.5]","['[""[\'leito_acids\']"", ""[\'Ejoc202001649-sup-00001-misc_information.pdf\']""]']"
1747,CCCC[C@H]([NH3+])c1ccc(Cl)cc1,O,0,0,8.85,[8.85],"['[""[\'hunt_et_al\']""]']"
1748,CC(C)N1CC[NH+](Cc2cnc(-c3cc(-c4cccc5[nH]ccc45)cc4[nH]ncc34)o2)CC1,O,0,0,8.26,[8.26],"['[""[\'hunt_et_al\']""]']"
1749,O=[N+]([O-])c1c[nH]c2ccccc12,O,4770-03-0,3-nitro-1H-indole,10.12,[10.12],"['[""[\'Ejoc202001649-sup-00001-misc_information.pdf\']""]']"
1750,[NH2+]=C1CCCC1,O,0,0,8.95,[8.95],"['[""[\'hunt_et_al\']""]']"
1751,COc1ccc([NH3+])cc1,CC#N,,(4-methoxyphenyl)azanium,11.86,[11.86],"['[""[\'pKa_values_of_nitrogen_heterocycles.pdf\']""]']"
1752,N#CC(C#N)=CC(C#N)C#N,C(CCl)Cl,32019-26-4,"prop-1-ene-1,1,3,3-tetracarbonitrile",34.3,[34.3],"['[""[\'leito_acids\']""]']"
1753,Cc1c(C2(c3cc(Br)c(O)c(Br)c3C)OS(=O)(=O)c3ccccc32)cc(Br)c(O)c1Br,C(CCl)Cl,76-60-8,"2,6-dibromo-4-[3-(3,5-dibromo-4-hydroxy-2-methylphenyl)-1,1-dioxo-2,16-benzoxathiol-3-yl]-3-methylphenol",45.2,[45.2],"['[""[\'leito_acids\']""]']"
1754,O=C(c1ccc(C(F)(F)F)cc1)N(O)c1ccccc1,O,0,0,7.98,[7.98],"['[""[\'hunt_et_al\']""]']"
1755,c1c[nH][nH+]c1,O,,1H-pyrazol-2-ium,2.48,"[2.48, 2.48]","['[""[\'pKa_values_of_nitrogen_heterocycles.pdf\', \'Bases_pKa_values_MeCN_DMSO_THF_Water.pdf\']""]']"
1756,N#Cc1ccc(Cl)cc1O[C@H](CC[NH3+])c1ccccc1,O,0,0,10.3,[10.3],"['[""[\'hunt_et_al\']""]']"
1757,O=C(O)C(Cl)(Cl)Cl,O,0,0,0.51,[0.51],"['[""[\'hunt_et_al\']""]']"
1758,N#CC(c1c(F)c(F)c(F)c(F)c1F)c1c(F)c(F)c(C(F)(F)F)c(F)c1F,CS(=O)C,42238-35-7,"2-(2,3,4,5,6-pentafluorophenyl)-2-[2,3,5,6-tetrafluoro-4-(trifluoromethyl)phenyl]acetonitrile",4.9,"[4.9, 4.9]","['[""[\'pKa_values_of_acids_and_bases_in_MeCN_DCE_DMSO_H2O_THF_C7_DME.pdf\', \'a_unified_view_to_bronsted_acidity_scales.pdf\']""]']"
1759,O=C1NS(=O)(=O)c2ccccc21,O,128-44-9,"1,1-dioxo-1,2-benzothiazol-3-one",1.8,"[1.8, 1.8]","['[""[\'pKa_values_of_acids_and_bases_in_MeCN_DCE_DMSO_H2O_THF_C7_DME.pdf\', \'Ejoc202001649-sup-00001-misc_information.pdf\']""]']"
1760,COc1ccc([C@@]2(c3cccc(-c4cncnc4)c3)N=C(C)C(N)=[NH+]2)cc1C,O,0,0,5.83,[5.83],"['[""[\'hunt_et_al\']""]']"
1761,[NH3+]Cc1cccc([N+](=O)[O-])c1,O,0,0,8.65,[8.65],"['[""[\'hunt_et_al\']""]']"
1762,C[NH2+][C@@H](C)[C@@H](O)c1ccccc1,O,0,0,9.86,[9.86],"['[""[\'hunt_et_al\']""]']"
1763,Cc1cnc2c(O)cccc2c1C,O,0,0,10.05,[10.05],"['[""[\'hunt_et_al\']""]']"
1764,N#CC(S(=O)(=O)C(F)(F)F)S(=O)(=O)C(F)(F)F,C(CCl)Cl,174191-48-1,"2,2-bis((trifluoromethyl)sulfonyl)acetonitrile",30.0,[30.0],"['[""[\'leito_acids\']""]']"
1765,OCC(F)F,O,0,0,13.11,[13.11],"['[""[\'hunt_et_al\']""]']"
1766,C/C(=N\NC(=O)Nc1cc(F)cc(F)c1)c1ncccc1C(=O)O,O,0,0,3.18,[3.18],"['[""[\'hunt_et_al\']""]']"
1767,NC(Nc1ccccc1)=[NH+]c1ccccc1,O,-,[amino(anilino)methylidene]-phenylazanium,10.02,[10.02],"['[""[\'Bases_pKa_values_MeCN_DMSO_THF_Water.pdf\']""]']"
1768,CCCC(=O)NO,O,0,0,9.48,[9.48],"['[""[\'hunt_et_al\']""]']"
1769,[NH3+]CCCBr,O,0,0,8.93,[8.93],"['[""[\'hunt_et_al\']""]']"
1770,CN(C)[P+](N)(N(C)C)N(C)C,CS(=O)C,-,amino-tris(dimethylamino)phosphanium,16.4,[16.4],"['[""[\'Bases_pKa_values_MeCN_DMSO_THF_Water.pdf\']""]']"
1771,O=C(O)Cc1ccc(Br)cc1,O,0,0,4.19,[4.19],"['[""[\'hunt_et_al\']""]']"
1772,CC(C)[NH2+]c1ccc([N+](=O)[O-])cc1,O,0,0,1.32,[1.32],"['[""[\'hunt_et_al\']""]']"
1773,COc1cccc(C[NH2+]c2ccc([N+](=O)[O-])cc2[N+](=O)[O-])c1,O,0,0,-5.07,[-5.07],"['[""[\'hunt_et_al\']""]']"
1774,CC1(C)CCC[NH2+]C1,O,0,0,10.38,[10.38],"['[""[\'hunt_et_al\']""]']"
1775,COC(=O)c1ccccc1[NH3+],O,0,0,2.23,[2.23],"['[""[\'hunt_et_al\']""]']"
1776,[NH3+]c1ccc(C2CC2)cc1,O,0,0,4.9,[4.9],"['[""[\'hunt_et_al\']""]']"
1777,CCCN(CCC)[C@@H]1CCc2c(O)cccc2C1,O,0,0,9.25,[9.25],"['[""[\'hunt_et_al\']""]']"
1778,C=CC[NH2+]C,O,0,0,10.11,[10.11],"['[""[\'hunt_et_al\']""]']"
1779,[H]/N=C(/N)SCCc1cccc(CCSC(N)=[NH2+])c1,O,0,0,11.0,[11.0],"['[""[\'hunt_et_al\']""]']"
1780,Oc1c(Br)cc(Br)cc1Br,CC#N,118-79-6,"2,4,6-tribromophenol",20.345,"[20.35, 20.34, 20.34, 20.35]","['[""[\'MeCN_Acids_COSMO-RS_2008_Table.pdf\', \'pKa_values_of_acids_in_acetonitrile.pdf\', \'Ejoc202001649-sup-00001-misc_information.pdf\', \'leito_acids\']""]']"
1781,CC[NH+](CC)CCNC(=O)c1ccc(NC(C)=O)cc1,O,0,0,9.14,[9.14],"['[""[\'hunt_et_al\']""]']"
1782,CC(=O)c1cccc(C(=O)O)c1,O,0,0,3.83,[3.83],"['[""[\'hunt_et_al\']""]']"
1783,O=C(O)/C=C(/c1ccccc1)C(F)(F)F,O,0,0,2.41,[2.41],"['[""[\'hunt_et_al\']""]']"
1784,CCCN(CCC)CCc1ccc(O)c2c1CC(=O)N2,O,0,0,8.35,[8.35],"['[""[\'hunt_et_al\']""]']"
1785,CC(C)[NH2+]C[C@H](O)c1ccc(O)cc1,O,0,0,9.57,[9.57],"['[""[\'hunt_et_al\']""]']"
1786,O=C(O)[C@H]1CCC[NH2+]C1,O,0,0,6.995,"[10.64, 3.35]","['[""[\'hunt_et_al\']""]', '[""[\'hunt_et_al\']""]']"
1787,N#CC1=CC(C#N)C=C1C#N,C(CCl)Cl,215395-09-8,"cyclopenta-2,5-diene-1,2,4-tricarbonitrile",38.0,"[38.0, 38.0]","['[""[\'Ejoc202001649-sup-00001-misc_information.pdf\', \'leito_acids\']""]']"
1788,O=[N+]([O-])c1cc([N+](=O)[O-])c(O)c([N+](=O)[O-])c1,O,88-89-1,"2,4,6-trinitrophenol",0.33,"[0.3, 0.4, 0.29]","['[""[\'pKa_values_of_acids_and_bases_in_MeCN_DCE_DMSO_H2O_THF_C7_DME.pdf\', \'Ejoc202001649-sup-00001-misc_information.pdf\']""]', '[""[\'hunt_et_al\']""]']"
1789,NC1=[NH+][C@H](c2ccccc2)Nc2ccccc21,O,0,0,9.83,[9.83],"['[""[\'hunt_et_al\']""]']"
1790,O=C1C(O)=C(Oc2ccccc2)C(=O)C([O-])=C1Oc1ccccc1,O,0,0,3.0,[3.0],"['[""[\'hunt_et_al\']""]']"
1791,CCn1cc(C(=O)O)c(=O)c2cc(F)c(N3CC[NH2+][C@H](C)C3)c(F)c21,O,0,0,5.82,[5.82],"['[""[\'hunt_et_al\']""]']"
1792,Oc1ccccc1Br,O,0,0,8.39,[8.39],"['[""[\'hunt_et_al\']""]']"
1793,CC(=O)CCCC[NH+](C)C,O,0,0,9.6,[9.6],"['[""[\'hunt_et_al\']""]']"
1794,N#CC(C#N)=C(C#N)CC(C#N)=C(C#N)C#N,C(CCl)Cl,1261286-78-5,,33.5,[33.5],"['[""[\'leito_acids\']""]']"
1795,O=C(O)/C=C/c1ccccc1Br,O,0,0,4.33,[4.33],"['[""[\'hunt_et_al\']""]']"
1796,Cc1ccc(S(=O)(=O)NC(=O)N2CCC(N3CCC(Oc4ccc(Cl)c(C)c4Cl)CC3)CC2)cc1,O,0,0,3.2,[3.2],"['[""[\'hunt_et_al\']""]']"
1797,O=C(O)CCc1ccccc1Cl,O,0,0,4.58,[4.58],"['[""[\'hunt_et_al\']""]']"
1798,Oc1ccc2ccccc2n1,O,0,0,11.76,[11.76],"['[""[\'hunt_et_al\']""]']"
1799,C[C@H]1C[NH+]=C(C(C)(C)C)S1,O,0,0,5.027,[5.027],"['[""[\'hunt_et_al\']""]']"
1800,O=C([O-])CCCCC(=O)O,O,0,0,5.41,[5.41],"['[""[\'hunt_et_al\']""]']"
1801,Oc1ccccc1C(F)(F)F,O,444-30-4,2-(trifluoromethyl)phenol,8.42,[8.42],"['[""[\'Ejoc202001649-sup-00001-misc_information.pdf\']""]']"
1802,CC(C)c1ccc(Br)c(=O)c(O)c1Br,O,0,0,4.44,[4.44],"['[""[\'hunt_et_al\']""]']"
1803,O=[N+]([O-])c1cc2c(c([N+](=O)[O-])c1)Nc1c(cccc1[N+](=O)[O-])O2,CC#N,24050-30-4,"1,3,9-trinitro-10H-phenoxazine",21.9,[21.9],"['[""[\'MeCN_Acids_COSMO-RS_2008_Table.pdf\']""]']"
1804,[NH3+]c1cccc2ccc([N+](=O)[O-])cc12,O,0,0,2.55,[2.55],"['[""[\'hunt_et_al\']""]']"
1805,C[C@@H](C=C(c1ccccc1)c1ccccc1)[NH+](C)C,O,0,0,9.21,[9.21],"['[""[\'hunt_et_al\']""]']"
1806,Cc1ccc(Cl)cc1[NH3+],O,0,0,3.85,[3.85],"['[""[\'hunt_et_al\']""]']"