,Solute SMILES,Solvent SMILES,Solute CAS,Solute IUPAC,pKa (avg),pKa (all),Source (all)
2165,CO/N=C1\CN(c2nc3c(cc2F)c(=O)c(C(=O)[O-])cn3C2CC2)C[C@@H]1C[NH3+],O,0,0,8.6,[8.6],"['[""[\'hunt_et_al\']""]']"
2166,CC=CC=CC(=O)O,CC#N,110-44-1,"hexa-2,4-dienoic acid",22.97,"[22.97, 22.97]","['[""[\'pKa_values_of_acids_in_acetonitrile.pdf\', \'Ejoc202001649-sup-00001-misc_information.pdf\']""]']"
2167,Cc1cccc([NH+](C)C)c1,O,0,0,5.344,[5.344],"['[""[\'hunt_et_al\']""]']"
2168,O=C(O)c1ncccn1,O,0,0,2.85,[2.85],"['[""[\'hunt_et_al\']""]']"
2169,C1C[NH+]2CCN1CC2,CS(=O)C,49623-77-0,4-aza-1-azoniabicyclo[2.2.2]octane,9.06,[9.06],"['[""[\'Bases_pKa_values_MeCN_DMSO_THF_Water.pdf\']""]']"
2170,c1ccc(CC[NH+]2CCCC2)nc1,O,0,0,9.39,[9.39],"['[""[\'hunt_et_al\']""]']"
2171,O=[N+]([O-])c1ccc(O)c([N+](=O)[O-])c1,CC#N,51-28-5,"2,4-dinitrophenol",16.656,"[16.66, 16.66, 16.65, 16.65, 16.66]","['[""[\'MeCN_Acids_COSMO-RS_2008_Table.pdf\', \'pKa_values_of_acids_and_bases_in_MeCN_DCE_DMSO_H2O_THF_C7_DME.pdf\', \'pKa_values_of_acids_in_acetonitrile.pdf\', \'Ejoc202001649-sup-00001-misc_information.pdf\', \'leito_acids\']""]']"
2172,CC(C)(C)c1ccc(S(=O)(=O)CC(=O)O)cc1,O,0,0,2.598,[2.598],"['[""[\'hunt_et_al\']""]']"
2173,Cc1c(F)c(F)c(C(C#N)c2ccccc2)c(F)c1F,CS(=O)C,58432-62-5,"2-phenyl-2-(2,3,5,6-tetrafluoro-4-methylphenyl)acetonitrile",13.2,[13.2],"['[""[\'Ejoc202001649-sup-00001-misc_information.pdf\']""]']"
2174,C[C@H]([NH3+])CO,O,0,0,9.43,[9.43],"['[""[\'hunt_et_al\']""]']"
2175,O=C(O)CF,O,0,0,2.59,[2.59],"['[""[\'hunt_et_al\']""]']"
2176,[NH3+]CC(Cl)(Cl)Cl,O,0,0,5.47,[5.47],"['[""[\'hunt_et_al\']""]']"
2177,C[C@H](Oc1ccc(Cl)cc1)C(=O)O,O,0,0,3.26,[3.26],"['[""[\'hunt_et_al\']""]']"
2178,C[C@H](Oc1cc(Cl)c(Cl)cc1Cl)C(=O)O,O,0,0,2.84,[2.84],"['[""[\'hunt_et_al\']""]']"
2179,c1ccc(C[NH2+]Cc2ccccc2)cc1,O,0,0,8.52,"[8.52, 8.52]","['[""[\'hunt_et_al\']""]', '[""[\'Bases_pKa_values_MeCN_DMSO_THF_Water.pdf\']""]']"
2180,O=[N+]([O-])c1ccccc1O,CC#N,88-75-5,2-nitrophenol,22.85,"[22.85, 22.85, 22.85, 22.85]","['[""[\'MeCN_Acids_COSMO-RS_2008_Table.pdf\', \'pKa_values_of_acids_in_acetonitrile.pdf\', \'Ejoc202001649-sup-00001-misc_information.pdf\', \'leito_acids\']""]']"
2181,c1ccc2[nH+]c3ccccc3cc2c1,CC#N,-,acridin-10-ium,12.665,"[12.67, 12.66]","['[""[\'pKa_values_of_nitrogen_heterocycles.pdf\', \'Bases_pKa_values_MeCN_DMSO_THF_Water.pdf\']""]']"
2182,C[C@@H](Cl)CC(=O)O,O,0,0,4.05,[4.05],"['[""[\'hunt_et_al\']""]']"
2183,CCOP(=O)(C[NH+](C)C)OCC,O,0,0,5.85,[5.85],"['[""[\'hunt_et_al\']""]']"
2184,O=C(NCC12CC3CC(CC(C3)C1)C2)c1cc(N2CC[NH2+]CC2)ncc1Cl,O,0,0,8.5,[8.5],"['[""[\'hunt_et_al\']""]']"
2185,Oc1cc(Cl)c(Cl)c(Cl)c1,CC#N,609-19-8,"3,4,5-trichlorophenol",22.5,[22.5],"['[""[\'MeCN_Acids_COSMO-RS_2008_Table.pdf\']""]']"
2186,Oc1c(Br)c(Br)c(Br)c(Br)c1Br,CC#N,608-71-9,"2,3,4,5,6-pentabromophenol",17.82,"[17.83, 17.81, 17.81, 17.83]","['[""[\'MeCN_Acids_COSMO-RS_2008_Table.pdf\', \'pKa_values_of_acids_in_acetonitrile.pdf\', \'Ejoc202001649-sup-00001-misc_information.pdf\', \'leito_acids\']""]']"
2187,O=P1(NS(=O)(=O)C(F)(F)F)Oc2c(-c3ccccc3)cc3c(c2-c2c4c(cc(C5C=CC=CC5)c2O1)CCCC4)CCCC3,CC#N,1261302-62-8,,6.6899999999999995,"[6.68, 6.7]","['[""[\'Ejoc202001649-sup-00001-misc_information.pdf\', \'leito_acids\']""]']"
2188,COC(=O)[C@H](CC(=O)O)c1ccccc1,O,0,0,4.36,[4.36],"['[""[\'hunt_et_al\']""]']"
2189,CC(C)[NH2+]C[C@H](O)c1cccc([N+](=O)[O-])c1,O,0,0,9.21,[9.21],"['[""[\'hunt_et_al\']""]']"
2190,C[NH2+]CCc1ccc(O)c(O)c1,O,0,0,8.9,[8.9],"['[""[\'hunt_et_al\']""]']"
2191,COc1cccc(OC)c1C(=O)N[C@@H]1C(=O)N2[C@@H](C(=O)O)C(C)(C)S[C@H]12,O,0,0,2.77,[2.77],"['[""[\'hunt_et_al\']""]']"
2192,C[NH2+]CC[C@H](O)c1ccccc1,O,0,0,9.565,[9.565],"['[""[\'hunt_et_al\']""]']"
2193,C1CC2CCC1C[NH2+]C2,O,0,0,10.57,[10.57],"['[""[\'hunt_et_al\']""]']"
2194,O=C1C=C[NH2+]C(=O)N1,CC#N,,"1H-pyrimidin-1-ium-2,4-dione",3.38,[3.38],"['[""[\'pKa_values_of_nitrogen_heterocycles.pdf\']""]']"
2195,[NH3+]c1nc(=O)c2ncn(COCCO)c2[nH]1,O,0,0,2.2,[2.2],"['[""[\'hunt_et_al\']""]']"
2196,O=C(O)c1ccc(Br)cc1,O,0,0,3.97,[3.97],"['[""[\'hunt_et_al\']""]']"
2197,c1ccc2c(c1)ccc1[nH+]cccc12,O,,benzo[f]quinolin-4-ium,5.15,[5.15],"['[""[\'pKa_values_of_nitrogen_heterocycles.pdf\']""]']"
2198,C1CCC([NH2+]C2CCCC2)C1,O,0,0,10.93,[10.93],"['[""[\'hunt_et_al\']""]']"
2199,[NH3+][C@@H]1C[C@H]1c1ccc(Cl)cc1,O,0,0,8.11,[8.11],"['[""[\'hunt_et_al\']""]']"
2200,Oc1c(Cl)c(Cl)c(Cl)c(Cl)c1Cl,O,0,0,4.74,"[4.74, 4.74]","['[""[\'hunt_et_al\']""]', '[""[\'Ejoc202001649-sup-00001-misc_information.pdf\']""]']"
2201,C/C(=N\O)C(C)(C)CCCCC[NH3+],O,0,0,9.12,[9.12],"['[""[\'hunt_et_al\']""]']"
2202,CON(C)C(=O)c1c(Cn2c(C)[nH+]c(Cl)c2Cl)sc2c1c(=O)n(C)c(=O)n2CC(C)C,O,0,0,2.7,[2.7],"['[""[\'hunt_et_al\']""]']"
2203,O=C(O)c1c(O)ccc2ccccc12,O,0,0,3.29,[3.29],"['[""[\'hunt_et_al\']""]']"
2204,COC(=O)c1ccccc1S(=O)(=O)NC(=O)N(C)c1nc(C)nc(OC)n1,O,0,0,4.7,[4.7],"['[""[\'hunt_et_al\']""]']"
2205,c1ccc2[nH][nH+]cc2c1,O,-,1H-indazol-2-ium,1.25,"[1.25, 1.25]","['[""[\'pKa_values_of_nitrogen_heterocycles.pdf\', \'Bases_pKa_values_MeCN_DMSO_THF_Water.pdf\']""]']"
2206,O=C([O-])CCS,O,0,0,10.27,[10.27],"['[""[\'hunt_et_al\']""]']"
2207,Cc1cc(C)cc(O)c1,O,0,0,10.15,[10.15],"['[""[\'hunt_et_al\']""]']"
2208,CC(C)[NH+](c1ccccc1)C(C)C,O,0,0,7.37,[7.37],"['[""[\'hunt_et_al\']""]']"
2209,c1cnc[nH+]c1,CC#N,-,pyrimidin-1-ium,8.72,"[8.72, 8.72]","['[""[\'pKa_values_of_nitrogen_heterocycles.pdf\', \'Bases_pKa_values_MeCN_DMSO_THF_Water.pdf\']""]']"
2210,CCOC(=O)C(C#N)c1c(C(F)(F)F)c(C(F)(F)F)c(C(F)(F)F)c(C(F)(F)F)c1C(F)(F)F,C(CCl)Cl,2226486-80-0,,47.8,[47.8],"['[""[\'leito_acids\']""]']"
2211,C[C@@H]1COc2c(N3CC[NH+](C)CC3)c(F)cc3c(=O)c(C(=O)[O-])cn1c23,O,0,0,8.1,[8.1],"['[""[\'hunt_et_al\']""]']"
2212,NS(=O)(=O)c1cccc([N+](=O)[O-])c1,CC#N,121-52-8,3-nitrobenzenesulfonamide,23.79,"[22.95, 24.63]","['[""[\'MeCN_Acids_COSMO-RS_2008_Table.pdf\', \'Ejoc202001649-sup-00001-misc_information.pdf\']""]']"
2213,O=S(=O)(NS(=O)(=O)C(F)(F)F)c1ccc(Cl)cc1,CC#N,174788-89-7,4-chloro-N-(trifluoromethylsulfonyl)benzenesulfonamide,5.126666666666666,"[5.02, 5.34, 5.02]","['[""[\'leito_acids\']"", ""[\'MeCN_Acids_COSMO-RS_2008_Table.pdf\', \'DCE_2011_pKa_Table_MeCN.pdf\']""]']"
2214,[NH3+]c1cccc2cccc([N+](=O)[O-])c12,O,0,0,2.79,[2.79],"['[""[\'hunt_et_al\']""]']"
2215,N#Cc1c(F)c(F)c(N)c(F)c1F,CC#N,17823-38-0,"4-amino-2,3,5,6-tetrafluorobenzonitrile",28.78,"[28.78, 28.78]","['[""[\'pKa_values_of_acids_in_acetonitrile.pdf\', \'Ejoc202001649-sup-00001-misc_information.pdf\']""]']"
2216,OCC[NH2+]CCO,O,0,0,8.883,[8.883],"['[""[\'hunt_et_al\']""]']"
2217,NS(=O)(=O)c1ccccc1,CS(=O)C,98-10-2,benzenesulfonamide,16.1,[16.1],"['[""[\'Ejoc202001649-sup-00001-misc_information.pdf\']""]']"
2218,C[C@H](CS)C(=O)N1CCC[C@H]1C(=O)O,O,0,0,3.45,[3.45],"['[""[\'hunt_et_al\']""]']"
2219,[NH3+][C@H]1CCN(c2c(F)cc3c(=O)c(C(=O)[O-])cn(C4CC4)c3c2Cl)C1,O,0,0,9.1,[9.1],"['[""[\'hunt_et_al\']""]']"
2220,C1C[NH2+]CCN1,CS(=O)C,8057-14-5,piperazin-1-ium,10.5,[10.5],"['[""[\'Bases_pKa_values_MeCN_DMSO_THF_Water.pdf\']""]']"
2221,[NH3+]c1ccc(Cl)c(Cl)c1,O,0,0,2.968,[2.968],"['[""[\'hunt_et_al\']""]']"
2222,Oc1ccccc1-c1ccc(I)cc1,O,0,0,10.92,[10.92],"['[""[\'hunt_et_al\']""]']"
2223,C[C@@]12CC[C@H]3c4ccc(O)cc4CC[C@@H]3[C@@H]1CC[C@@H]2O,O,0,0,10.0,[10.0],"['[""[\'hunt_et_al\']""]']"
2224,O=S(=O)(N=C(NS(=O)(=O)C(F)(F)F)c1ccc(F)cc1)C(F)(F)F,CC#N,500721-93-7,"4-fluoro-N,N'-bis((trifluoromethyl)sulfonyl)benzimidamide",5.38,"[5.66, 5.33, 5.29, 5.29, 5.33]","['[""[\'MeCN_Acids_COSMO-RS_2008_Table.pdf\', \'DCE_2011_pKa_Table_MeCN.pdf\', \'pKa_values_of_acids_in_acetonitrile.pdf\', \'Ejoc202001649-sup-00001-misc_information.pdf\', \'leito_acids\']""]']"
2225,N#CC(C#N)S(=O)(=O)c1ccc([N+](=O)[O-])cc1,C(CCl)Cl,1207878-53-2,2-((4-nitrophenyl)sulfonyl)malononitrile,39.9,"[39.9, 39.9]","['[""[\'Ejoc202001649-sup-00001-misc_information.pdf\', \'leito_acids\']""]']"
2226,COC(=O)C[C@@](C)(C(=O)O)c1ccccc1,O,0,0,4.15,[4.15],"['[""[\'hunt_et_al\']""]']"
2227,CCCC[C@@H](CC)CO[NH+](C[C@@H](C)O)C[C@@H](C)O,O,0,0,7.7,[7.7],"['[""[\'hunt_et_al\']""]']"
2228,CC(=O)[C@H]([NH3+])C(=O)OCc1ccccc1,O,0,0,5.2,[5.2],"['[""[\'hunt_et_al\']""]']"
2229,Cc1nc2ccccc2nc1O,O,0,0,9.9,[9.9],"['[""[\'hunt_et_al\']""]']"
2230,O=C(O)Cc1ccc(F)cc1,O,0,0,4.25,[4.25],"['[""[\'hunt_et_al\']""]']"
2231,CCOC(=O)[C@@H](N)CS,O,0,0,6.53,[6.53],"['[""[\'hunt_et_al\']""]']"
2232,C[C@@H](C=C(c1cccs1)c1cccs1)[N@H+]1CCCC[C@H]1C,O,0,0,7.41,[7.41],"['[""[\'hunt_et_al\']""]']"
2233,O=C(O)CO,CC#N,79-14-1,2-hydroxyacetic acid,19.3,[19.3],"['[""[\'MeCN_Acids_COSMO-RS_2008_Table.pdf\']""]']"
2234,[NH3+]c1cc(I)cc2ccccc12,O,0,0,2.82,[2.82],"['[""[\'hunt_et_al\']""]']"
2235,COc1ccc(C(=O)NS(=O)(=O)C(F)(F)F)cc1,CC#N,39063-05-3,4-methoxy-N-(trifluoromethylsulfonyl)benzamide,11.6,"[11.6, 11.6, 11.6]","['[""[\'MeCN_Acids_COSMO-RS_2008_Table.pdf\', \'Ejoc202001649-sup-00001-misc_information.pdf\']"", ""[\'leito_acids\']""]']"
2236,c1ccc(C[NH+]2CCCC2)cc1,O,0,0,9.51,[9.51],"['[""[\'hunt_et_al\']""]']"
2237,CCCCCC[C@@H](C)[NH3+],O,0,0,10.49,[10.49],"['[""[\'hunt_et_al\']""]']"
2238,CCC[NH+](CCCl)CCCl,O,0,0,6.68,[6.68],"['[""[\'hunt_et_al\']""]']"
2239,N#CC1c2ccccc2-c2ccccc21,CC#N,1529-40-4,9H-fluorene-9-carbonitrile,21.263333333333332,"[21.36, 20.8, 21.36, 21.35, 21.35, 21.36]","['[""[\'MeCN_Acids_COSMO-RS_2008_Table.pdf\', \'MeCN_Acids_COSMO-RS_2008_Table.pdf\', \'a_unified_view_to_bronsted_acidity_scales.pdf\', \'pKa_values_of_acids_in_acetonitrile.pdf\', \'Ejoc202001649-sup-00001-misc_information.pdf\', \'leito_acids\']""]']"
2240,Oc1cc2ccccc2nn1,O,0,0,8.63,[8.63],"['[""[\'hunt_et_al\']""]']"
2241,CSc1ccccc1[NH3+],O,0,0,3.45,[3.45],"['[""[\'hunt_et_al\']""]']"
2242,Fc1c(F)c(F)c(C2c3ccccc3-c3ccccc32)c(F)c1F,CC#N,73482-93-6,"9-(2,3,4,5,6-pentafluorophenyl)-9H-fluorene",28.125,"[28.14, 28.11, 28.11, 28.14]","['[""[\'pKa_values_of_acids_in_acetonitrile.pdf\', \'leito_acids\']"", ""[\'MeCN_Acids_COSMO-RS_2008_Table.pdf\', \'Ejoc202001649-sup-00001-misc_information.pdf\']""]']"
2243,OC(C(F)(F)F)(C(F)(F)F)C(F)(F)Cl,O,0,0,5.3,[5.3],"['[""[\'hunt_et_al\']""]']"
2244,OCCF,O,0,0,14.2,[14.2],"['[""[\'hunt_et_al\']""]']"
2245,[NH3+]c1cccc(OC(F)(F)C(F)(F)F)c1,O,0,0,3.24,[3.24],"['[""[\'hunt_et_al\']""]']"
2246,C[C@H]([NH2+][C@H]1CCc2ccccc21)c1ccccc1,O,0,0,6.87,[6.87],"['[""[\'hunt_et_al\']""]']"
2247,CN(C)C(=N)[NH+](C)C,C1CCOC1,-,"(N,N-dimethylcarbamimidoyl)-dimethylazanium",15.5,"[15.5, 15.5]","['[""[\'pKa_values_of_acids_and_bases_in_MeCN_DCE_DMSO_H2O_THF_C7_DME.pdf\', \'Bases_pKa_values_MeCN_DMSO_THF_Water.pdf\']""]']"
2248,CCC[NH2+]CCC,O,0,0,11.0,"[11.0, 11.0]","['[""[\'hunt_et_al\']""]', '[""[\'Bases_pKa_values_MeCN_DMSO_THF_Water.pdf\']""]']"
2249,C[C@H](CCC(C(=O)O)(c1ccccc1)c1ccccc1)[NH+](C)C,O,0,0,10.88,[10.88],"['[""[\'hunt_et_al\']""]']"
2250,O=[N+]([O-])O,C(CCl)Cl,7697-37-2,nitric acid,43.6,[43.6],"['[""[\'leito_acids\']""]']"
2251,CN1CCN(c2c(F)cc3c(=O)c(C(=O)O)cn(CCF)c3c2F)CC1,O,0,0,5.6,[5.6],"['[""[\'hunt_et_al\']""]']"
2252,N#CC(c1c(F)c(F)c(F)c(F)c1F)c1c(F)c(F)c2c(F)c(F)c(F)c(F)c2c1F,C(CCl)Cl,64934-68-5,"2-(1,3,4,5,6,7,8-heptafluoronaphthalen-2-yl)-2-(2,3,4,5,6-pentafluorophenyl)acetonitrile",54.4,"[54.4, 54.4]","['[""[\'Ejoc202001649-sup-00001-misc_information.pdf\', \'leito_acids\']""]']"
2253,CC1(C)CCCC(C)(C)[NH2+]1,O,0,0,11.1,[11.1],"['[""[\'hunt_et_al\']""]']"
2254,NCC[NH3+],CC#N,-,2-aminoethylazanium,18.46,[18.46],"['[""[\'Bases_pKa_values_MeCN_DMSO_THF_Water.pdf\']""]']"
2255,Oc1cc(Cl)c(Cl)c(Cl)c1Cl,O,0,0,6.35,[6.35],"['[""[\'hunt_et_al\']""]']"
2256,CCOP(=O)(OCC)OCC[NH+](C)C,O,0,0,8.0,[8.0],"['[""[\'hunt_et_al\']""]']"
2257,Cc1cc(C)c(O)c(C)c1,O,0,0,10.88,[10.88],"['[""[\'hunt_et_al\']""]']"
2258,O=C(O)[C@H](O)c1ccccc1,O,0,0,3.19,[3.19],"['[""[\'hunt_et_al\']""]']"
2259,Cc1cc(C)c(C[NH+](CCO)CCO)c(C)c1,O,0,0,7.45,[7.45],"['[""[\'hunt_et_al\']""]']"
2260,C1CCC([C@@H]2CCC[NH2+]2)CC1,O,0,0,10.76,[10.76],"['[""[\'hunt_et_al\']""]']"
2261,C[C@H]1C[C@@H](C)C[NH+](C)C1,O,0,0,10.0,[10.0],"['[""[\'hunt_et_al\']""]']"
2262,CCCCCCCCCC[NH3+],O,0,0,10.64,[10.64],"['[""[\'hunt_et_al\']""]']"
2263,CCN(CC)CC[NH+](CC)CC,O,0,0,9.55,[9.55],"['[""[\'hunt_et_al\']""]']"
2264,Oc1cccc(O)c1,O,0,0,9.15,[9.15],"['[""[\'hunt_et_al\']""]']"
2265,O=C(O)[C@H]1CCCNC1,O,0,0,3.35,[3.35],"['[""[\'hunt_et_al\']""]']"
2266,O=S(=O)(O)c1cccc2ccccc12,CC#N,85-47-2,naphthalene-1-sulfonic acid,7.894,"[7.89, 7.89, 7.9, 7.9, 7.89]","['[""[\'MeCN_Acids_COSMO-RS_2008_Table.pdf\', \'DCE_2011_pKa_Table_MeCN.pdf\', \'pKa_values_of_acids_in_acetonitrile.pdf\', \'Ejoc202001649-sup-00001-misc_information.pdf\', \'leito_acids\']""]']"
2267,CC[NH+](CC)CCC(c1ccccc1)c1ccccc1,O,0,0,10.1,[10.1],"['[""[\'hunt_et_al\']""]']"
2268,Cc1cc2cccc(O)c2nc1C,O,0,0,10.2,[10.2],"['[""[\'hunt_et_al\']""]']"
2269,C[C@H](CC(C#N)(c1ccccc1)c1ccccc1)[NH+]1CCCCC1,O,0,0,7.68,[7.68],"['[""[\'hunt_et_al\']""]']"
2270,CCC[NH+](CCC)[C@@H]1CCc2c(O)cccc2C1,O,0,0,10.05,"[10.85, 9.25]","['[""[\'hunt_et_al\']""]', '[""[\'hunt_et_al\']""]']"
2271,C=CC[NH+](C)CC=C,O,0,0,8.79,[8.79],"['[""[\'hunt_et_al\']""]']"
2272,CC(C)(C)c1ccc(O)cc1,CC#N,98-54-4,4-tert-butylphenol,27.48,[27.48],"['[""[\'MeCN_Acids_COSMO-RS_2008_Table.pdf\']""]']"
2273,I,C(CCl)Cl,10034-85-2,iodane,37.7,"[37.7, 37.7, 37.7]","['[""[\'pKa_values_of_acids_and_bases_in_MeCN_DCE_DMSO_H2O_THF_C7_DME.pdf\', \'Ejoc202001649-sup-00001-misc_information.pdf\', \'leito_acids\']""]']"
2274,Oc1cccc2ncccc12,O,0,0,8.56,[8.56],"['[""[\'hunt_et_al\']""]']"
2275,CCCC(=O)O,O,0,0,4.82,[4.82],"['[""[\'hunt_et_al\']""]']"
2276,O=[N+]([O-])C1=CN=C[NH2+]1,CC#N,,5-nitro-1H-imidazol-3-ium,6.34,[6.34],"['[""[\'pKa_values_of_nitrogen_heterocycles.pdf\']""]']"
2277,Oc1ccccc1F,O,0,0,8.81,[8.81],"['[""[\'hunt_et_al\']""]']"
2278,O=C(O)c1ccc(C2CCCC2)cc1,O,0,0,4.21,[4.21],"['[""[\'hunt_et_al\']""]']"
2279,Cc1ccc(S(=O)(=O)N2CC[NH2+]CC2)cc1,O,0,0,7.4,[7.4],"['[""[\'hunt_et_al\']""]']"
2280,CSc1ccc([NH3+])c(Cl)c1,O,0,0,2.56,[2.56],"['[""[\'hunt_et_al\']""]']"
2281,C[C@H](CN1c2ccccc2Sc2ccccc21)[NH+](C)C,O,0,0,9.1,[9.1],"['[""[\'hunt_et_al\']""]']"
2282,O=C(NCC12CC3CC(CC(C3)C1)C2)c1cc(C[NH+]2C[C@@H]3CNC[C@H](C2)O3)ccc1Cl,O,0,0,10.0,[10.0],"['[""[\'hunt_et_al\']""]']"
2283,O=C(O)CCC(=O)c1ccc2ccccc2c1,O,0,0,4.96,[4.96],"['[""[\'hunt_et_al\']""]']"
2284,O=S(=O)(O)c1ccccc1,CC#N,98-11-3,benzenesulfonic acid,8.2,"[8.2, 8.2]","['[""[\'pKa_values_of_acids_in_acetonitrile.pdf\', \'Ejoc202001649-sup-00001-misc_information.pdf\']""]']"
2285,OCC(Cl)Cl,O,0,0,12.89,[12.89],"['[""[\'hunt_et_al\']""]']"
2286,C[NH2+]CCc1ccc(O)cc1,O,0,0,9.36,[9.36],"['[""[\'hunt_et_al\']""]']"
2287,CCOC(=O)C(C#N)c1c(F)c(F)c(F)c(F)c1F,CS(=O)C,2340-87-6,"ethyl 2-cyano-2-(2,3,4,5,6-pentafluorophenyl)acetate",4.9,"[4.7, 5.1]","['[""[\'a_unified_view_to_bronsted_acidity_scales.pdf\', \'Ejoc202001649-sup-00001-misc_information.pdf\']""]']"
2288,Cl,CN(C)C=O,7647-01-0,chlorane,2.36,[2.36],"['[""[\'Ejoc202001649-sup-00001-misc_information.pdf\']""]']"
2289,CC[NH2+]c1ccccc1,O,0,0,5.12,[5.12],"['[""[\'hunt_et_al\']""]']"
2290,OCCOc1ccccc1,O,0,0,14.6,[14.6],"['[""[\'hunt_et_al\']""]']"
2291,CNc1cccc(C)[nH+]1,O,0,0,8.84,[8.84],"['[""[\'hunt_et_al\']""]']"
2292,O=S1(=O)NS(=O)(=O)c2c(-c3cc(C(F)(F)F)cc(C(F)(F)F)c3)cc3ccccc3c2C2=C3C=CC=CC3CC(c3cc(C(F)(F)F)cc(C(F)(F)F)c3)=C21,CC#N,1242421-77-7,,8.4,[8.4],"['[""[\'leito_acids\']""]']"
2293,CC[NH+](CC)Cc1ccc2cccnc2c1O,O,0,0,11.3,[11.3],"['[""[\'hunt_et_al\']""]']"
2294,Oc1ccnc2cccnc12,O,0,0,10.03,[10.03],"['[""[\'hunt_et_al\']""]']"
2295,Cc1ccc(S(=O)(=O)NC(=O)NN2CCCCCC2)cc1,O,0,0,5.8,[5.8],"['[""[\'hunt_et_al\']""]']"
2296,CN1CC[NH+](C)CC1,CC#N,-,"1,4-dimethylpiperazin-1-ium",17.38,[17.38],"['[""[\'Bases_pKa_values_MeCN_DMSO_THF_Water.pdf\']""]']"
2297,CCCC[NH2+]C,O,0,0,10.9,[10.9],"['[""[\'hunt_et_al\']""]']"
2298,Oc1c(F)c(F)c(F)c(F)c1F,CC#N,771-61-9,"2,3,4,5,6-pentafluorophenol",20.105,"[20.11, 20.1, 20.1, 20.11]","['[""[\'MeCN_Acids_COSMO-RS_2008_Table.pdf\', \'pKa_values_of_acids_in_acetonitrile.pdf\', \'Ejoc202001649-sup-00001-misc_information.pdf\', \'leito_acids\']""]']"
2299,[NH3+]C1CCCC1,O,0,0,10.65,[10.65],"['[""[\'hunt_et_al\']""]']"
2300,N#Cc1cccc(O)c1,O,0,0,8.61,[8.61],"['[""[\'hunt_et_al\']""]']"
2301,Oc1c(Cl)cc(Cl)cc1Cc1cc(Cl)cc(Cl)c1O,O,0,0,10.65,[10.65],"['[""[\'hunt_et_al\']""]']"
2302,O=S(=O)(NS(=O)(=O)C(F)(F)F)C(F)(F)F,C(CCl)Cl,82113-65-3,"1,1,1-trifluoro-N-(trifluoromethylsulfonyl)methanesulfonamide",33.0,[33.0],"['[""[\'leito_acids\']""]']"
2303,N#CC(C#N)c1ccc([N+](=O)[O-])cc1,CC#N,7077-65-8,2-(4-nitrophenyl)propanedinitrile,11.61,"[11.61, 11.61, 11.61, 11.61]","['[""[\'MeCN_Acids_COSMO-RS_2008_Table.pdf\', \'pKa_values_of_acids_in_acetonitrile.pdf\', \'Ejoc202001649-sup-00001-misc_information.pdf\', \'leito_acids\']""]']"
2304,COc1ccc([C@@H]2CCC[N@H+]2C)cc1,O,0,0,8.9,[8.9],"['[""[\'hunt_et_al\']""]']"
2305,C[N+](C)(C)c1cccc([NH3+])c1,O,0,0,2.22,[2.22],"['[""[\'hunt_et_al\']""]']"
2306,CSc1cc(=[NH2+])nc(N)n1C,O,0,0,11.9,[11.9],"['[""[\'hunt_et_al\']""]']"
2307,O=C(NS(=O)(=O)c1ccc(F)cc1)N1CCC(N2CCC(Oc3ccc(Cl)c(Cl)c3)CC2)CC1,O,0,0,3.0,[3.0],"['[""[\'hunt_et_al\']""]']"
2308,OCC[NH+](CCO)Cc1cccc(Br)c1,O,0,0,8.98,[8.98],"['[""[\'hunt_et_al\']""]']"
2309,CC(C)(C)c1cc(NC(=O)NCc2ccccc2Sc2ccc3nnc(-c4ccccc4SCCO)n3c2)n(-c2ccc(O)c(Cl)c2)n1,O,0,0,7.17,[7.17],"['[""[\'hunt_et_al\']""]']"
2310,O=Cc1ncccc1O,O,0,0,6.95,[6.95],"['[""[\'hunt_et_al\']""]']"
2311,CCCCCC[NH2+]c1ccccc1,O,0,0,5.42,[5.42],"['[""[\'hunt_et_al\']""]']"
2312,Oc1ccc2c(c1)CCCC2,O,0,0,10.48,[10.48],"['[""[\'hunt_et_al\']""]']"
2313,O=C(O)c1cccc2c1C(=O)c1ccccc1C2=O,O,0,0,3.37,[3.37],"['[""[\'hunt_et_al\']""]']"
2314,CCC[NH+](CCC)CCC,CS(=O)C,-,tripropylazanium,10.7,[10.7],"['[""[\'Bases_pKa_values_MeCN_DMSO_THF_Water.pdf\']""]']"
2315,OCC[NH+](CCO)Cc1ccccc1,O,0,0,7.68,[7.68],"['[""[\'hunt_et_al\']""]']"
2316,O=[N+]([O-])c1cccc(S)c1,O,0,0,5.24,[5.24],"['[""[\'hunt_et_al\']""]']"
2317,CC(=O)c1ccc(Sc2ccc([NH3+])cc2)cc1,O,0,0,3.31,[3.31],"['[""[\'hunt_et_al\']""]']"
2318,CN1CCN(c2ccc(-c3cc(NCC[NH+](C)C)c4ccccc4n3)cc2)CC1,O,0,0,8.94,[8.94],"['[""[\'hunt_et_al\']""]']"
2319,Cc1ccc(-c2cnc(O)nc2)cc1,O,0,0,8.74,[8.74],"['[""[\'hunt_et_al\']""]']"
2320,COc1cccc(C(=[NH2+])c2ccccc2)c1,O,0,0,6.59,[6.59],"['[""[\'hunt_et_al\']""]']"
2321,C[NH+](C)CCN(Cc1ccccc1)c1cccc[nH+]1,O,0,0,3.92,[3.92],"['[""[\'hunt_et_al\']""]']"
2322,[NH3+]Cc1ccc(Br)cc1,O,0,0,9.13,[9.13],"['[""[\'hunt_et_al\']""]']"
2323,C[C@@H](O)C(F)(F)F,O,0,0,11.8,[11.8],"['[""[\'hunt_et_al\']""]']"
2324,C=CC[NH+](C)C,O,0,0,8.64,[8.64],"['[""[\'hunt_et_al\']""]']"
2325,c1cnc2c(c1)ccc1ccc[nH+]c12,O,-,"1,10-phenanthrolin-10-ium",5.12,"[5.12, 5.12]","['[""[\'pKa_values_of_nitrogen_heterocycles.pdf\', \'Bases_pKa_values_MeCN_DMSO_THF_Water.pdf\']""]']"
2326,O=C(O)c1c(Cl)cccc1Cl,CC#N,50-30-6,"2,6-dichlorobenzoic acid",17.6,[17.6],"['[""[\'MeCN_Acids_COSMO-RS_2008_Table.pdf\']""]']"
2327,NS(=O)(=O)c1ccc(F)cc1,O,402-46-0,4-fluorobenzenesulfonamide,10.02,[10.02],"['[""[\'Ejoc202001649-sup-00001-misc_information.pdf\']""]']"
2328,Oc1c(Cl)cc(Cl)c(Cl)c1Cc1c(O)c(Cl)cc(Cl)c1Cl,O,0,0,10.1,[10.1],"['[""[\'hunt_et_al\']""]']"
2329,C[NH2+]C(C)(C)Cc1ccccc1,O,0,0,10.37,[10.37],"['[""[\'hunt_et_al\']""]']"
2330,[NH3+]C[C@H](O)c1ccc(Cl)c(Cl)c1,O,0,0,8.78,[8.78],"['[""[\'hunt_et_al\']""]']"
2331,c1cc[nH+]nc1,O,-,pyridazin-1-ium,2.33,"[2.33, 2.33]","['[""[\'pKa_values_of_nitrogen_heterocycles.pdf\', \'Bases_pKa_values_MeCN_DMSO_THF_Water.pdf\']""]']"
2332,[NH3+][C@@H]1C[C@@H]2CC[C@H]1C2,O,0,0,10.5,[10.5],"['[""[\'hunt_et_al\']""]']"
2333,CC[N@@H+]1C[C@@H](C)C[C@@H](O)[C@@H]1[C@H](C)c1ccc2c(c1C)C[C@@H]1[C@H]2CC=C2C[C@H](O)CC[C@@]21C,O,0,0,7.4,[7.4],"['[""[\'hunt_et_al\']""]']"
2334,O=C([O-])[C@H]1CCC[NH2+]C1,O,0,0,10.64,[10.64],"['[""[\'hunt_et_al\']""]']"
2335,CC(=O)N[C@@H](CS)C(=O)[O-],O,0,0,9.52,[9.52],"['[""[\'hunt_et_al\']""]']"
2336,C[NH2+][C@@H]1CCC[C@H]1O,O,0,0,10.06,[10.06],"['[""[\'hunt_et_al\']""]']"
2337,C=C1CCC[N@H+](C)C1,O,0,0,9.31,[9.31],"['[""[\'hunt_et_al\']""]']"
2338,[NH3+]c1ccc([N+](=O)[O-])cc1Cl,CC#N,-,(2-chloro-4-nitrophenyl)azanium,3.66,[3.66],"['[""[\'pKa_values_of_nitrogen_heterocycles.pdf\']""]']"
2339,CC(C)Oc1cccc(C(=O)O)c1,O,0,0,4.15,[4.15],"['[""[\'hunt_et_al\']""]']"
2340,CC(C)(C[NH3+])c1ccccc1,O,0,0,10.03,[10.03],"['[""[\'hunt_et_al\']""]']"