,Solute SMILES,Solvent SMILES,Solute CAS,Solute IUPAC,pKa (avg),pKa (all),Source (all)
958,CN(C)[P+](NC(C)(C)C)(N(C)C)N(C)C,O,-,(tert-butylamino)-tris(dimethylamino)phosphanium,17.0,[17.0],"[""['Bases_pKa_values_MeCN_DMSO_THF_Water.pdf']""]"
959,CC1=CCCC[N@H+:8]1C,O,0,0,11.38,[11.38],"[""['hunt_et_al']""]"
960,Cc1cccc(CCC(=O)[OH:12])c1,O,0,0,4.68,[4.68],"[""['hunt_et_al']""]"
961,N#CCc1ccc([N+](=O)[O-])cc1,CC#N,555-21-5,2-(4-nitrophenyl)acetonitrile,25.4,[25.4],"[""['MeCN_Acids_COSMO-RS_2008_Table.pdf']""]"
962,O=C(CCc1cccc(Cl)c1)[OH:11],O,0,0,4.59,[4.59],"[""['hunt_et_al']""]"
963,CC1(C)CC(C)(C)C[NH+:11](C)C1,O,0,0,9.43,[9.43],"[""['hunt_et_al']""]"
964,CC=CC=CC(=O)O,O,110-44-1,"hexa-2,4-dienoic acid",4.5,[4.5],"[""['Ejoc202001649-sup-00001-misc_information.pdf']""]"
965,COc1cc([NH3+:12])c2ccccc2c1,O,0,0,3.26,[3.26],"[""['hunt_et_al']""]"
966,COc1ccc([NH3+:8])cc1Br,O,0,0,4.08,[4.08],"[""['hunt_et_al']""]"
967,O=S(=O)(c1cc(S(=O)(=O)C(F)(F)F)c(O)c(S(=O)(=O)C(F)(F)F)c1)C(F)(F)F,CC#N,71571-37-4,"2,4,6-tris(trifluoromethylsulfonyl)phenol",4.5200000000000005,"[4.48, 4.48, 4.44, 4.48, 4.8, 4.44]","[""['DCE_2011_pKa_Table_MeCN.pdf', 'a_unified_view_to_bronsted_acidity_scales.pdf', 'pKa_values_of_acids_in_acetonitrile.pdf', 'leito_acids']"", ""['MeCN_Acids_COSMO-RS_2008_Table.pdf', 'Ejoc202001649-sup-00001-misc_information.pdf']""]"
968,Oc1ccc(C(F)(F)F)cc1,O,402-45-9,4-(trifluoromethyl)phenol,8.68,[8.68],"[""['Ejoc202001649-sup-00001-misc_information.pdf']""]"
969,CCOCC[SH:6],O,0,0,9.38,[9.38],"[""['hunt_et_al']""]"
970,CC(=O)c1ccc([OH:10])cc1,O,0,0,8.05,[8.05],"[""['hunt_et_al']""]"
971,Cc1cc(C[N@@H+:26](CC(=O)Nc2ccc(Cl)cc2Cl)C2CCCCC2)ccc1OCC(=O)[O-],O,0,0,6.7,[6.7],"[""['hunt_et_al']""]"
972,O=C(C(F)(F)Cl)[OH:4],O,0,0,0.46,[0.46],"[""['hunt_et_al']""]"
973,Nc1ccc([NH3+:8])nc1,O,0,0,6.48,[6.48],"[""['hunt_et_al']""]"
974,COc1ccc(Cl)cc1[NH3+:8],O,0,0,3.56,[3.56],"[""['hunt_et_al']""]"
975,O=[N+]([O-])c1ccccc1O,O,88-75-5,2-nitrophenol,7.22,[7.22],"[""['Ejoc202001649-sup-00001-misc_information.pdf']""]"
976,c1ccc2[nH+]c3ccccc3cc2c1,O,-,acridin-10-ium,5.62,"[5.62, 5.62]","[""['pKa_values_of_nitrogen_heterocycles.pdf', 'Bases_pKa_values_MeCN_DMSO_THF_Water.pdf']""]"
977,C[NH+]1CCCCC1,C1CCOC1,-,1-methylpiperidin-1-ium,12.9,[12.9],"[""['Bases_pKa_values_MeCN_DMSO_THF_Water.pdf']""]"
978,c1ccc(Cc2ccc([NH3+:14])cc2)cc1,O,0,0,4.78,[4.78],"[""['hunt_et_al']""]"
979,C[NH+:23]1CCN(CC(=O)N2c3ccccc3C(=O)Nc3cccnc32)CC1,O,0,0,7.88,[7.88],"[""['hunt_et_al']""]"
980,O=[N+]([O-])c1cccc([SH:10])c1,O,0,0,5.24,[5.24],"[""['hunt_et_al']""]"
981,NC(=NCC[NH+]1CCCCCCC1)[NH2:13],O,0,0,11.4,[11.4],"[""['hunt_et_al']""]"
982,CCCCC[C@H](O)C(C)(C)[NH3+:10],O,0,0,9.85,[9.85],"[""['hunt_et_al']""]"
983,Cc1ccc([NH3+:8])cc1[N+](=O)[O-],O,0,0,2.96,[2.96],"[""['hunt_et_al']""]"
984,O=C(NCC12CC3CC(CC(C3)C1)C2)c1cc(C[NH+:25]2CCNCC2)ccc1Cl,O,0,0,8.85,[8.85],"[""['hunt_et_al']""]"
985,CC(C)[NH2+:12]C[C@H](O)c1ccccc1[N+](=O)[O-],O,0,0,9.35,[9.35],"[""['hunt_et_al']""]"
986,CC(C)(C)c1cc([N+](=O)[O-])cc(C(C)(C)C)c1[OH:18],O,0,0,6.65,[6.65],"[""['hunt_et_al']""]"
987,N[NH3+],CS(=O)C,18500-32-8,aminoazanium,10.1,[10.1],"[""['Bases_pKa_values_MeCN_DMSO_THF_Water.pdf']""]"
988,CC[NH+](C)CC,CC#N,-,diethyl(methyl)azanium,18.2,[18.2],"[""['Bases_pKa_values_MeCN_DMSO_THF_Water.pdf']""]"
989,CC[NH+:12](CC)CCCCCC#N,O,0,0,10.46,[10.46],"[""['hunt_et_al']""]"
990,CCC(=O)O[C@]1(c2ccccc2)CC[N@H+:17](C)C[C@@H]1C,O,0,0,8.7,[8.7],"[""['hunt_et_al']""]"
991,C[C@@H](CO)[NH2+:12]CCc1ccc(O)c(O)c1,O,0,0,9.87,[9.87],"[""['hunt_et_al']""]"
992,c1ccc2[nH+]c[nH]c2c1,CC#N,-,1H-benzimidazol-3-ium,13.53,"[13.52, 13.54]","[""['pKa_values_of_nitrogen_heterocycles.pdf', 'Bases_pKa_values_MeCN_DMSO_THF_Water.pdf']""]"
993,CC(C)C[NH+:13](CC(C)C)CC(C)C,O,0,0,10.32,[10.32],"[""['hunt_et_al']""]"
994,O=[N+]([O-])c1ccc(Cl)cc1[OH:10],O,0,0,6.05,[6.05],"[""['hunt_et_al']""]"
995,O=C([C@H](O)CCl)[OH:5],O,0,0,3.12,[3.12],"[""['hunt_et_al']""]"
996,COc1c(N2C[C@@H]3CCCN[C@@H]3C2)c(F)cc2c(=O)c(C(=O)[OH:27])cn(C3CC3)c12,O,0,0,6.31,[6.31],"[""['hunt_et_al']""]"
997,CCC(=O)C(C[C@H](C)[NH+:22](C)C)(c1ccccc1)c1ccccc1,O,0,0,8.94,[8.94],"[""['hunt_et_al']""]"
998,CC[C@@H](C)[NH3+:5],O,0,0,10.56,[10.56],"[""['hunt_et_al']""]"
999,O=C1C=C[NH2+]C(=O)N1,O,,"1H-pyrimidin-1-ium-2,4-dione",0.5,[0.5],"[""['pKa_values_of_nitrogen_heterocycles.pdf']""]"
1000,NS(=O)(=O)c1cccc(Cl)c1,CC#N,17260-71-8,3-chlorobenzenesulfonamide,23.8,[23.8],"[""['MeCN_Acids_COSMO-RS_2008_Table.pdf']""]"
1001,Nc1nc(-c2ccccn2)[nH+:18]c(N)c1Cc1ccc(Cl)cc1Cl,O,0,0,5.58,[5.58],"[""['hunt_et_al']""]"
1002,c1ccc2c3c(ccc2c1)-c1ccc([NH3+:18])cc1C3,O,0,0,4.67,[4.67],"[""['hunt_et_al']""]"
1003,O=C(O)C=CC(=O)O,CC#N,26099-09-2,but-2-enedioic acid,19.2,[19.2],"[""['MeCN_Acids_COSMO-RS_2008_Table.pdf']""]"
1004,O=C(c1cc(I)cc(I)c1O)[OH:10],O,0,0,2.3,[2.3],"[""['hunt_et_al']""]"
1005,C[C@H]([NH3+])C(=O)[OH:6],O,0,0,2.35,[2.35],"[""['hunt_et_al']""]"
1006,c1ccc([NH3+:7])cc1,O,0,0,4.64,[4.64],"[""['hunt_et_al']""]"
1007,c1ccc(/N=N/c2cccc[nH+:12]2)cc1,O,0,0,2.0,[2.0],"[""['hunt_et_al']""]"
1008,O=C(C(F)(F)F)[OH:4],O,0,0,0.3,[0.3],"[""['hunt_et_al']""]"
1009,Cc1ccc(S(=O)(=O)O)cc1,CC#N,104-15-4,4-methylbenzenesulfonic acid,8.41,"[8.45, 8.01, 8.5, 8.5, 8.5, 8.5]","[""['MeCN_Acids_COSMO-RS_2008_Table.pdf', 'MeCN_Acids_COSMO-RS_2008_Table.pdf', 'DCE_2011_pKa_Table_MeCN.pdf', 'pKa_values_of_acids_in_acetonitrile.pdf', 'Ejoc202001649-sup-00001-misc_information.pdf', 'leito_acids']""]"
1010,C[C@H]1CC[N@H+:10](C)C(C)(C)C1,O,0,0,10.18,[10.18],"[""['hunt_et_al']""]"
1011,O=C(Nc1ccc([NH+:22]2CCOCC2)c(F)c1)c1nnc(Nc2ccccc2F)o1,O,0,0,6.17,[6.17],"[""['hunt_et_al']""]"
1012,CC(C)[C@@H](c1ccccc1)[NH3+:11],O,0,0,9.85,[9.85],"[""['hunt_et_al']""]"
1013,C1CCC2=NCCC[NH+]2CC1,O,-,"3,4,5,6,7,8,9,10-octahydro-2H-pyrimido[1,2-a]azepin-5-ium",13.5,[13.5],"[""['Bases_pKa_values_MeCN_DMSO_THF_Water.pdf']""]"
1014,O=[N+]([O-])c1cc(Br)c([OH:10])c(Br)c1,O,0,0,3.39,[3.39],"[""['hunt_et_al']""]"
1015,Cc1cn(Cc2ccccc2)c(=O)[nH:13]c1=O,O,0,0,9.4,[9.4],"[""['hunt_et_al']""]"
1016,CCOC(=O)c1ccc([NH3+:10])cc1,O,0,0,2.51,"[2.5, 2.52]","[""['hunt_et_al']"", ""['hunt_et_al']""]"
1017,CSc1cc([OH:8])ncn1,O,0,0,8.52,[8.52],"[""['hunt_et_al']""]"
1018,CCCC[N@H+:16](C)[C@@H]1CCc2ccccc2C1,O,0,0,9.71,[9.71],"[""['hunt_et_al']""]"
1019,O=S(=O)(O)C(F)(F)F,C(CCl)Cl,1493-13-6,trifluoromethanesulfonic acid,33.7,"[33.7, 33.7]","[""['pKa_values_of_acids_and_bases_in_MeCN_DCE_DMSO_H2O_THF_C7_DME.pdf', 'leito_acids']""]"
1020,CCOc1cccc(C(=O)[OH:12])c1CO,O,0,0,3.62,[3.62],"[""['hunt_et_al']""]"
1021,FC(F)(F)Oc1ccc([NH3+:8])cc1,O,0,0,3.82,[3.82],"[""['hunt_et_al']""]"
1022,CCOC(=O)C(C#N)c1c(F)c(F)nc(F)c1F,CS(=O)C,55810-61-2,"ethyl 2-cyano-2-(2,3,5,6-tetrafluoropyridin-4-yl)acetate",3.2,"[3.2, 3.2]","[""['a_unified_view_to_bronsted_acidity_scales.pdf']"", ""['Ejoc202001649-sup-00001-misc_information.pdf']""]"
1023,O=C(CCl)[OH:4],O,0,0,2.87,[2.87],"[""['hunt_et_al']""]"
1024,CC(C)Sc1ccc([NH3+:10])cc1,O,0,0,3.89,[3.89],"[""['hunt_et_al']""]"
1025,CS(=O)(=O)CC(=O)[OH:7],O,0,0,2.36,[2.36],"[""['hunt_et_al']""]"
1026,Cc1cc([N+](=O)[O-])c[nH+:7]c1N,O,0,0,3.58,[3.58],"[""['hunt_et_al']""]"
1027,Cc1cccc[nH+]1,CC#N,,2-methylpyridin-1-ium,13.32,[13.32],"[""['pKa_values_of_nitrogen_heterocycles.pdf']""]"
1028,Oc1ccccc1/N=N/c1ccccc1[OH:15],O,0,0,7.8,[7.8],"[""['hunt_et_al']""]"
1029,N#CC1c2ccccc2-c2ccccc21,O,1529-40-4,9H-fluorene-9-carbonitrile,10.7,[10.7],"[""['Ejoc202001649-sup-00001-misc_information.pdf']""]"
1030,NCCCC[NH3+],CC#N,-,4-aminobutylazanium,20.12,[20.12],"[""['Bases_pKa_values_MeCN_DMSO_THF_Water.pdf']""]"
1031,OC(C(F)(F)F)(C(F)(F)F)C(F)(F)F,O,1/2/78,"1,1,1,3,3,3-hexafluoro-2-(trifluoromethyl)propan-2-ol",5.33,[5.33],"[""['Ejoc202001649-sup-00001-misc_information.pdf']""]"
1032,CC(C)[NH2+:13]C[C@H](O)c1ccc(C(F)(F)F)cc1,O,0,0,9.34,[9.34],"[""['hunt_et_al']""]"
1033,COC(=O)c1cc2nc([S@@](=O)Cc3c(C)ccc[nH+:18]3)[nH]c2cc1C,O,0,0,3.5,[3.5],"[""['hunt_et_al']""]"
1034,C[NH2+]C,C1CCOC1,49784-85-2,dimethylazanium,13.3,[13.3],"[""['Bases_pKa_values_MeCN_DMSO_THF_Water.pdf']""]"
1035,C[NH+:10](C)Cc1ccccn1,O,0,0,8.12,[8.12],"[""['hunt_et_al']""]"
1036,N#CC(c1c(F)c(F)c2c(F)c(F)c(F)c(F)c2c1F)c1c(F)c(F)c2c(F)c(F)c(F)c(F)c2c1F,CC#N,62325-38-6,"2,2-bis(1,3,4,5,6,7,8-heptafluoronaphthalen-2-yl)acetonitrile",19.319999999999997,"[19.32, 19.32, 19.32, 19.32, 19.32, 19.32]","[""['MeCN_Acids_COSMO-RS_2008_Table.pdf', 'pKa_values_of_acids_and_bases_in_MeCN_DCE_DMSO_H2O_THF_C7_DME.pdf', 'a_unified_view_to_bronsted_acidity_scales.pdf', 'pKa_values_of_acids_in_acetonitrile.pdf', 'Ejoc202001649-sup-00001-misc_information.pdf', 'leito_acids']""]"
1037,Brc1cc([NH3+:11])cc2ccccc12,O,0,0,3.4,[3.4],"[""['hunt_et_al']""]"
1038,NCC[NH3+],O,-,2-aminoethylazanium,9.98,[9.98],"[""['Bases_pKa_values_MeCN_DMSO_THF_Water.pdf']""]"
1039,C1CC[NH2+]CC1,O,17523-59-0,piperidin-1-ium,11.22,[11.22],"[""['Bases_pKa_values_MeCN_DMSO_THF_Water.pdf']""]"
1040,C[C@H](CN1c2ccccc2Sc2ccccc21)[NH+:19](C)C,O,0,0,9.1,[9.1],"[""['hunt_et_al']""]"
1041,BrCC[NH3+:3],O,0,0,8.49,[8.49],"[""['hunt_et_al']""]"
1042,C[NH+:20]1CCN(c2c(F)cc3c(=O)c(C(=O)O)cn(CCF)c3c2F)CC1,O,0,0,7.91,[7.91],"[""['hunt_et_al']""]"
1043,Clc1ccc2ccc([NH3+:11])cc2c1,O,0,0,3.71,[3.71],"[""['hunt_et_al']""]"
1044,CC(C)[NH2+:7]C(C)C,O,0,0,10.96,[10.96],"[""['hunt_et_al']""]"
1045,CCc1ccccc1[NH3+:9],O,0,0,4.37,[4.37],"[""['hunt_et_al']""]"
1046,C[NH+:13](C)[C@@H]1CCc2c(ccc(O)c2O)C1,O,0,0,10.5,[10.5],"[""['hunt_et_al']""]"
1047,O=c1n(CCC[NH+:24]2CCN(c3cccc(Cl)c3)CC2)nc2ccccn12,O,0,0,6.8,[6.8],"[""['hunt_et_al']""]"
1048,O=C(O)CCCCC(=O)O,CC#N,124-04-9,hexanedioic acid,20.3,[20.3],"[""['MeCN_Acids_COSMO-RS_2008_Table.pdf']""]"
1049,Cc1ccc([NH+:11](C)C)c(C)c1,O,0,0,5.28,[5.28],"[""['hunt_et_al']""]"
1050,O=C(COc1ccc([N+](=O)[O-])cc1)[OH:13],O,0,0,2.893,[2.893],"[""['hunt_et_al']""]"
1051,O=[N+]([O-])C1=CN=C[NH2+]1,O,,5-nitro-1H-imidazol-3-ium,-0.16,[-0.16],"[""['pKa_values_of_nitrogen_heterocycles.pdf']""]"
1052,O=C(c1cc(/N=N/c2ccc(Cl)cc2)ccc1O)[OH:18],O,0,0,2.5,[2.5],"[""['hunt_et_al']""]"
1053,O=C(c1ccccc1)c1ccccc1C(=O)[OH:17],O,0,0,3.536,[3.536],"[""['hunt_et_al']""]"
1054,[NH3+]C[C@@H]1Cc2c1ccc([OH:11])c2O,O,0,0,10.4,[10.4],"[""['hunt_et_al']""]"
1055,c1ccc(C[NH+:12]2CCCC2)cc1,O,0,0,9.51,[9.51],"[""['hunt_et_al']""]"
1056,N#CC(c1c(F)c(F)c(C(F)(F)F)c(F)c1F)c1c(F)c(F)c(C(F)(F)F)c(F)c1F,CC#N,58432-55-6,"2,2-bis[2,3,5,6-tetrafluoro-4-(trifluoromethyl)phenyl]acetonitrile",16.125,"[16.12, 16.13, 16.13, 16.12]","[""['pKa_values_of_acids_in_acetonitrile.pdf', 'leito_acids']"", ""['MeCN_Acids_COSMO-RS_2008_Table.pdf', 'Ejoc202001649-sup-00001-misc_information.pdf']""]"
1057,O=C([O-])[C@H]1CCC[NH2+:7]C1,O,0,0,10.64,[10.64],"[""['hunt_et_al']""]"
1058,C[NH2+:20]CC[C@@H](Oc1cc(C(F)(F)F)ccc1C#N)c1ccccc1,O,0,0,10.4,[10.4],"[""['hunt_et_al']""]"
1059,CN(C)CCC[NH+](C)C,CS(=O)C,-,3-(dimethylamino)propyl-dimethylazanium,9.4,[9.4],"[""['Bases_pKa_values_MeCN_DMSO_THF_Water.pdf']""]"
1060,CC(C)[NH2+:12]C[C@H](O)c1ccc(Cl)cc1,O,0,0,9.21,[9.21],"[""['hunt_et_al']""]"
1061,CCCC[C@@H](CC)COP(=O)(OC[C@H](CC)CCCC)[OH:18],O,0,0,2.85,[2.85],"[""['hunt_et_al']""]"
1062,O=C(CF)[OH:4],O,0,0,2.59,[2.59],"[""['hunt_et_al']""]"
1063,c1cnc2cc([OH:11])ccc2n1,O,0,0,7.94,[7.94],"[""['hunt_et_al']""]"
1064,CCC(CC)n1nc(C)c(C(=O)N[C@@H](C)C(C)(C)C)c1[NH:26]S(=O)(=O)c1ccc(C)cc1,O,0,0,4.6,[4.6],"[""['hunt_et_al']""]"
1065,C=CC[SH:4],O,0,0,9.96,[9.96],"[""['hunt_et_al']""]"
1066,COc1cccc(N)[nH+:7]1,O,0,0,4.64,[4.64],"[""['hunt_et_al']""]"
1067,c1cc(C[NH+:12]2CCCC2)ccn1,O,0,0,8.16,[8.16],"[""['hunt_et_al']""]"
1068,NS(=O)(=O)c1ccc(Cl)cc1,CC#N,98-64-6,4-chlorobenzenesulfonamide,25.85,[25.85],"[""['Ejoc202001649-sup-00001-misc_information.pdf']""]"
1069,CC(C)CC[C@@H](c1ccccc1)[NH3+:13],O,0,0,9.02,[9.02],"[""['hunt_et_al']""]"
1070,CC(C)(C)c1cc([NH3+:15])cc(C(C)(C)C)c1[N+](=O)[O-],O,0,0,2.93,[2.93],"[""['hunt_et_al']""]"
1071,CC(C)[C@@H]1CC[C@@H](C)C[C@@H]1[NH3+:11],O,0,0,10.35,[10.35],"[""['hunt_et_al']""]"
1072,CN1CC[NH+](C)CC1,O,-,"1,4-dimethylpiperazin-1-ium",8.54,[8.54],"[""['Bases_pKa_values_MeCN_DMSO_THF_Water.pdf']""]"
1073,Oc1c(F)c(F)c(F)c(F)c1F,O,771-61-9,"2,3,4,5,6-pentafluorophenol",5.55,[5.55],"[""['Ejoc202001649-sup-00001-misc_information.pdf']""]"
1074,Fc1c(F)c(F)c2c(c1F)Cc1c(F)c(F)c(F)c(F)c1-2,CC#N,27053-34-5,"1,2,3,4,5,6,7,8-octafluoro-9H-fluorene",24.49,"[24.49, 24.49, 24.49, 24.49]","[""['MeCN_Acids_COSMO-RS_2008_Table.pdf', 'pKa_values_of_acids_in_acetonitrile.pdf', 'Ejoc202001649-sup-00001-misc_information.pdf', 'leito_acids']""]"
1075,CC(C)[NH2+:12]C[C@H](O)c1ccccc1,O,0,0,9.5,[9.5],"[""['hunt_et_al']""]"
1076,O=[N+]([O-])c1ccc(S(=O)(=O)O)c([N+](=O)[O-])c1,CC#N,89-02-1,"2,4-dinitrobenzenesulfonic acid",3.9800000000000004,"[3.99, 3.96, 3.99]","[""['DCE_2011_pKa_Table_MeCN.pdf', 'Ejoc202001649-sup-00001-misc_information.pdf', 'leito_acids']""]"
1077,Nc1ccc([NH3+:7])cn1,O,0,0,6.48,[6.48],"[""['hunt_et_al']""]"
1078,CCCC(=O)C(CC[NH+:24]1CCOCC1)(c1ccccc1)c1ccccc1,O,0,0,7.17,[7.17],"[""['hunt_et_al']""]"
1079,FC(F)(F)c1ccc([NH3+:8])cc1,O,0,0,2.45,[2.45],"[""['hunt_et_al']""]"
1080,COC(=O)c1cccc([NH+:11](C)C)c1,O,0,0,3.86,[3.86],"[""['hunt_et_al']""]"
1081,CCOC(=O)c1cc[nH+:9]c(N)c1,O,0,0,5.25,[5.25],"[""['hunt_et_al']""]"
1082,C[C@@H](C(=O)[NH:12]S(C)(=O)=O)c1ccc(OS(=O)(=O)C(F)(F)F)cc1,O,0,0,3.1,[3.1],"[""['hunt_et_al']""]"
1083,O=[N+]([O-])c1cc([N+](=O)[O-])c(O)c([N+](=O)[O-])c1,C1CCOC1,88-89-1,"2,4,6-trinitrophenol",11.84,[11.84],"[""['pKa_values_of_acids_and_bases_in_MeCN_DCE_DMSO_H2O_THF_C7_DME.pdf']""]"
1084,[O-][Cl+3]([O-])([O-])O,C(CCl)Cl,7601-90-3,perchloric acid,32.2,"[32.2, 32.2]","[""['pKa_values_of_acids_and_bases_in_MeCN_DCE_DMSO_H2O_THF_C7_DME.pdf', 'leito_acids']""]"
1085,CCOC(=O)[C@H](CCc1ccccc1)N[C@@H](C)C(=O)N1CCC[C@H]1C(=O)[OH:26],O,0,0,3.1,[3.1],"[""['hunt_et_al']""]"
1086,O=C(O)[C@H]1CCC[NH2+:6]1,O,0,0,10.96,[10.96],"[""['hunt_et_al']""]"
1087,Cc1cc(C[N@H+]2Cc3ccccc3[C@@H]2C(=O)Nc2ccc(Cl)cc2Cl)ccc1OCC(=O)[OH:30],O,0,0,3.1,[3.1],"[""['hunt_et_al']""]"
1088,CC(=O)N(C)c1cccc[nH+:9]1,O,0,0,2.01,[2.01],"[""['hunt_et_al']""]"
1089,CN1C(C(=O)Nc2ccccn2)=C([OH:22])c2ccccc2S1(=O)=O,O,0,0,6.3,[6.3],"[""['hunt_et_al']""]"
1090,Cc1c(C(F)(F)F)c(C(F)(F)F)c(C(F)(F)F)c(C(F)(F)F)c1C(F)(F)F,CC#N,-,"1-methyl-2,3,4,5,6-pentakis(trifluoromethyl)benzene",28.735,"[28.7, 28.77, 28.77, 28.7]","[""['MeCN_Acids_COSMO-RS_2008_Table.pdf', 'pKa_values_of_acids_in_acetonitrile.pdf', 'Ejoc202001649-sup-00001-misc_information.pdf', 'leito_acids']""]"
1091,Cc1cc([NH3+:9])cc(C)c1[N+](=O)[O-],O,0,0,2.59,[2.59],"[""['hunt_et_al']""]"
1092,CN(C)c1ccc(S(=O)(=O)[NH:28]C(=O)N2CCC([NH+]3CCC(Oc4ccc(Cl)c(Cl)c4)CC3)CC2)cc1,O,0,0,6.1,[6.1],"[""['hunt_et_al']""]"
1093,[NH3+]c1ccc(F)cc1F,CC#N,,"(2,4-difluorophenyl)azanium",8.39,[8.39],"[""['pKa_values_of_nitrogen_heterocycles.pdf']""]"
1094,Oc1c(Br)cc(Br)cc1Br,CS(=O)C,118-79-6,"2,4,6-tribromophenol",8.7,[8.7],"[""['Ejoc202001649-sup-00001-misc_information.pdf']""]"
1095,c1ccc(/N=N/c2ccc3ccccc3c2[OH:19])nc1,O,0,0,7.9,[7.9],"[""['hunt_et_al']""]"
1096,COc1ccc(C[C@@H](C)[NH2+:13]C)cc1OC,O,0,0,9.81,[9.81],"[""['hunt_et_al']""]"
1097,C[C@@H](C(=O)[O-])[NH3+:4],O,0,0,10.0,[10.0],"[""['hunt_et_al']""]"
1098,CC(C)(C)N[P+](N1CCCC1)(N1CCCC1)N1CCCC1,CC#N,-,(tert-butylamino)-tripyrrolidin-1-ylphosphanium,28.42,"[28.42, 28.42]","[""['pKa_values_of_acids_and_bases_in_MeCN_DCE_DMSO_H2O_THF_C7_DME.pdf', 'Bases_pKa_values_MeCN_DMSO_THF_Water.pdf']""]"
1099,[NH3+][C@H]1CCN(c2c(F)cc3c(=O)c(C(=O)[OH:23])cn(C4CC4)c3c2Cl)C1,O,0,0,5.77,[5.77],"[""['hunt_et_al']""]"
1100,Cc1ccc(C)c([OH:9])c1,O,0,0,10.22,[10.22],"[""['hunt_et_al']""]"
1101,c1ccc([C@@H]2CCC[NH2+:11]2)cc1,O,0,0,9.6,[9.6],"[""['hunt_et_al']""]"
1102,C1C[NH2+:3]1,O,0,0,8.0,[8.0],"[""['hunt_et_al']""]"
1103,CS(=O)(=O)c1ccc([NH3+:8])c(Cl)c1,O,0,0,-0.41,[-0.41],"[""['hunt_et_al']""]"
1104,CC[NH+:7](CCCl)CCCl,O,0,0,6.55,[6.55],"[""['hunt_et_al']""]"
1105,O=S(=O)(NS(=O)(=O)c1ccccc1)c1ccccc1,CN(C)C=O,2618-96-4,N-(benzenesulfonyl)benzenesulfonamide,3.66,[3.66],"[""['Ejoc202001649-sup-00001-misc_information.pdf']""]"
1106,C[NH+](C)c1ccccc1,C1CCOC1,-,dimethyl(phenyl)azanium,4.9,[4.9],"[""['Bases_pKa_values_MeCN_DMSO_THF_Water.pdf']""]"
1107,Oc1ccc(C(F)(F)F)cc1,CC#N,402-45-9,4-(trifluoromethyl)phenol,25.519999999999996,"[25.54, 25.5, 25.5, 25.54]","[""['MeCN_Acids_COSMO-RS_2008_Table.pdf', 'pKa_values_of_acids_in_acetonitrile.pdf', 'Ejoc202001649-sup-00001-misc_information.pdf', 'leito_acids']""]"
1108,N#C[C@H]1C[NH+:10]2CCC1CC2,O,0,0,7.81,[7.81],"[""['hunt_et_al']""]"
1109,OCC[NH2+:5]CCO,O,0,0,8.883,[8.883],"[""['hunt_et_al']""]"
1110,N#CC(C#N)c1c(C(F)(F)F)cc(C(F)(F)F)c(C(F)(F)F)c1C(F)(F)F,CC#N,1018330-49-8,"2-(2,3,4,6-tetrakis(trifluoromethyl)phenyl)malononitrile",10.44,"[10.45, 10.45, 10.45, 10.42, 10.42, 10.45]","[""['MeCN_Acids_COSMO-RS_2008_Table.pdf', 'DCE_2011_pKa_Table_MeCN.pdf', 'a_unified_view_to_bronsted_acidity_scales.pdf', 'pKa_values_of_acids_in_acetonitrile.pdf', 'Ejoc202001649-sup-00001-misc_information.pdf', 'leito_acids']""]"
1111,O=C(O)c1ccc([N+](=O)[O-])cc1,CC#N,62-23-7,4-nitrobenzoic acid,18.7,[18.7],"[""['MeCN_Acids_COSMO-RS_2008_Table.pdf']""]"
1112,CC[N@@H+:30]1C[C@@H](C)C[C@@H](O)[C@@H]1[C@H](C)c1ccc2c(c1C)C[C@@H]1[C@H]2CC=C2C[C@H](O)CC[C@@]21C,O,0,0,7.4,[7.4],"[""['hunt_et_al']""]"
1113,Cc1nc2ccc(-c3ccc(Cl)cc3)cc2c(=O)n1C[C@H]1CCC[N@@H+:27](C(C)C)C1,O,0,0,10.09,[10.09],"[""['hunt_et_al']""]"
1114,O=S(=O)(N=C(NS(=O)(=O)C(F)(F)F)c1ccc(Cl)cc1)C(F)(F)F,CC#N,500721-95-9,"4-chloro-N,N'-bis(trifluoromethylsulfonyl)benzenecarboximidamide",5.288,"[5.24, 5.2, 5.24, 5.56, 5.2]","[""['DCE_2011_pKa_Table_MeCN.pdf', 'pKa_values_of_acids_in_acetonitrile.pdf', 'leito_acids']"", ""['MeCN_Acids_COSMO-RS_2008_Table.pdf', 'Ejoc202001649-sup-00001-misc_information.pdf']""]"
1115,CC(=O)c1ccc([NH3+:9])cc1,O,0,0,2.2,[2.2],"[""['hunt_et_al']""]"
1116,C1CC[C@@H]2[C@H](C1)CCC[NH2+:10]2,O,0,0,11.29,[11.29],"[""['hunt_et_al']""]"
1117,O=[N+]([O-])c1ccc([N+](=O)[O-])c([OH:13])c1,O,0,0,5.21,[5.21],"[""['hunt_et_al']""]"
1118,CCCSc1ccc2c(c1)[nH]c(NC(=O)OC)[nH+:13]2,O,0,0,5.88,[5.88],"[""['hunt_et_al']""]"
1119,C[NH+:11](C)CCc1ccc(O)cc1,O,0,0,9.78,[9.78],"[""['hunt_et_al']""]"
1120,CC(=O)C[C@H](c1ccccc1)c1c([OH:23])c2ccccc2oc1=O,O,0,0,5.1,[5.1],"[""['hunt_et_al']""]"
1121,CCc1cccc2c3c([nH]c12)[C@](CC)(CC(=O)[OH:21])OCC3,O,0,0,4.15,[4.15],"[""['hunt_et_al']""]"
1122,CCC(C)(CC)[NH2+:13]c1ccccc1,O,0,0,6.34,[6.34],"[""['hunt_et_al']""]"
1123,C1=C[NH2+]C=N1,C1CCOC1,-,1H-imidazol-1-ium,9.4,[9.4],"[""['Bases_pKa_values_MeCN_DMSO_THF_Water.pdf']""]"
1124,CCCC[C@@H]1CCC[N@H+:10]1C,O,0,0,10.2,[10.2],"[""['hunt_et_al']""]"
1125,Nc1ccc([N+](=O)[O-])c[nH+:6]1,O,0,0,2.78,[2.78],"[""['hunt_et_al']""]"
1126,N#CC(C#N)=C(C(C#N)C#N)C(F)(F)F,C(CCl)Cl,1261286-81-0,,32.2,[32.2],"[""['leito_acids']""]"
1127,CCOC(=O)N1CCC(c2cc(=O)n(-c3ccccc3)[nH:18]2)CC1,O,0,0,6.8,[6.8],"[""['hunt_et_al']""]"
1128,Cc1ccccc1C(c1ccccc1)=[NH2+:15],O,0,0,6.79,[6.79],"[""['hunt_et_al']""]"
1129,O=[N+]([O-])c1cc(I)cc([NH3+:7])c1,O,0,0,1.44,[1.44],"[""['hunt_et_al']""]"
1130,O=[N+]([O-])c1cc(Cl)c(O)c([N+](=O)[O-])c1,O,946-31-6,"2-chloro-4,6-dinitrophenol",2.01,[2.01],"[""['Ejoc202001649-sup-00001-misc_information.pdf']""]"
1131,CSc1c(I)cc([NH3+:8])cc1I,O,0,0,1.15,[1.15],"[""['hunt_et_al']""]"
1132,NS(=O)(=O)c1cccc(C(F)(F)F)c1,CS(=O)C,672-58-2,3-(trifluoromethyl)benzenesulfonamide,15.2,[15.2],"[""['Ejoc202001649-sup-00001-misc_information.pdf']""]"
1133,[NH3+]c1ccccc1,C1CCOC1,65756-50-5,phenylazanium,5.2,"[5.2, 5.2]","[""['pKa_values_of_acids_and_bases_in_MeCN_DCE_DMSO_H2O_THF_C7_DME.pdf', 'Bases_pKa_values_MeCN_DMSO_THF_Water.pdf']""]"
1134,C[NH2+:4]CC(=O)O,O,0,0,10.18,[10.18],"[""['hunt_et_al']""]"
1135,CCC[NH3+],O,,propylazanium,10.53,[10.53],"[""['Bases_pKa_values_MeCN_DMSO_THF_Water.pdf']""]"
1136,C[NH+:9](C)C1CCCCC1,O,0,0,10.72,[10.72],"[""['hunt_et_al']""]"
1137,c1ccc2nc([OH:11])ncc2c1,O,0,0,10.73,[10.73],"[""['hunt_et_al']""]"
1138,CC[N@@H+:8](CCO)C[C@@H](C)O,O,0,0,8.9,[8.9],"[""['hunt_et_al']""]"
1139,Cc1cc([OH:11])cc(C)c1C#N,O,0,0,8.21,[8.21],"[""['hunt_et_al']""]"
1140,O=C([O-])C[SH:5],O,0,0,10.4,[10.4],"[""['hunt_et_al']""]"