,Solute SMILES,Solvent SMILES,Solute CAS,Solute IUPAC,pKa (avg),pKa (all),Source (all)
388,CCC[N@@H+:18](CC[N+]1(C)CCCCC1)c1ccccc1,O,0,0,2.82,[2.82],"[""['hunt_et_al']""]"
389,CSc1cc(=[NH2+:8])nc(N)n1C,O,0,0,11.9,[11.9],"[""['hunt_et_al']""]"
390,C[C@H](Cc1ccccc1)[NH+:12](C)C,O,0,0,9.4,[9.4],"[""['hunt_et_al']""]"
391,CCOP(=O)(CC[NH+:11](CC)CC)OCC,O,0,0,8.2,[8.2],"[""['hunt_et_al']""]"
392,N#CC(c1c(F)c(F)c(C(F)(F)F)c(F)c1F)c1c(F)c(F)c(C(F)(F)F)c(F)c1F,CS(=O)C,58432-55-6,"2,2-bis[2,3,5,6-tetrafluoro-4-(trifluoromethyl)phenyl]acetonitrile",3.3,[3.3],"[""['Ejoc202001649-sup-00001-misc_information.pdf']""]"
393,O=S(=O)(O)CC[SH:6],O,0,0,9.2,[9.2],"[""['hunt_et_al']""]"
394,CN(C)P(=N[P+](N=P(N(C)C)(N(C)C)N(C)C)(N=P(N(C)C)(N(C)C)N(C)C)NC(C)(C)C)(N(C)C)N(C)C,CC#N,-,(tert-butylamino)-tris[[tris(dimethylamino)-_5-phosphanylidene]amino]phosphanium,42.7,[42.7],"[""['Bases_pKa_values_MeCN_DMSO_THF_Water.pdf']""]"
395,O=C(NCC12CC3CC(CC(C3)C1)C2)c1cc(-n2ncc(=O)[nH:23]c2=O)ccc1Cl,O,0,0,6.2,[6.2],"[""['hunt_et_al']""]"
396,COc1c(N2CCN[C@H](C)C2)c(F)cc2c(=O)c(C(=O)[OH:25])cn(C3CC3)c12,O,0,0,6.05,[6.05],"[""['hunt_et_al']""]"
397,O=[N+]([O-])c1ccc(C[NH3+:8])cc1,O,0,0,8.5,[8.5],"[""['hunt_et_al']""]"
398,C/C=C\c1ccc([OH:11])c(OC)c1,O,0,0,9.88,[9.88],"[""['hunt_et_al']""]"
399,Fc1ccc([NH3+:7])cc1,O,0,0,4.65,[4.65],"[""['hunt_et_al']""]"
400,C1CCC([NH3+:6])C1,O,0,0,10.65,[10.65],"[""['hunt_et_al']""]"
401,COc1ccc2c(c1)c(CC(=O)[OH:23])c(C)n2C(=O)c1ccc(Cl)cc1,O,0,0,4.42,[4.42],"[""['hunt_et_al']""]"
402,CC(C)[NH2+:12]C[C@H](O)c1cc(O)cc(O)c1,O,0,0,9.92,[9.92],"[""['hunt_et_al']""]"
403,c1c[nH+][nH]n1,CS(=O)C,-,2H-triazol-1-ium,0.0,[0.0],"[""['Bases_pKa_values_MeCN_DMSO_THF_Water.pdf']""]"
404,CC[C@@H](C)[NH2+:15]C[C@H](O)c1ccc(OC)c(OC)c1,O,0,0,9.48,[9.48],"[""['hunt_et_al']""]"
405,CC[NH+:11](CC)c1ccc([N+](=O)[O-])cc1,O,0,0,1.75,[1.75],"[""['hunt_et_al']""]"
406,FC(F)C[OH:3],O,0,0,13.11,[13.11],"[""['hunt_et_al']""]"
407,Br,CC#N,10035-10-6,bromane,5.471428571428571,"[5.5, 5.5, 5.5, 5.5, 5.4, 5.4, 5.5]","[""['MeCN_Acids_COSMO-RS_2008_Table.pdf', 'pKa_values_of_acids_and_bases_in_MeCN_DCE_DMSO_H2O_THF_C7_DME.pdf', 'DCE_2011_pKa_Table_MeCN.pdf', 'a_unified_view_to_bronsted_acidity_scales.pdf', 'pKa_values_of_acids_in_acetonitrile.pdf', 'Ejoc202001649-sup-00001-misc_information.pdf', 'leito_acids']""]"
408,CC(C)(C)c1cc[nH+:9]c(N)n1,O,0,0,4.58,[4.58],"[""['hunt_et_al']""]"
409,N[C@@H](CC[SH:8])C(=O)O,O,0,0,8.7,[8.7],"[""['hunt_et_al']""]"
410,C[NH2+]c1ccccc1,CC#N,-,methyl(phenyl)azanium,10.97,[10.97],"[""['Bases_pKa_values_MeCN_DMSO_THF_Water.pdf']""]"
411,COc1ccc(C(=C(C#N)C#N)C(C#N)C#N)cc1,C(CCl)Cl,1261286-76-3,,36.1,[36.1],"[""['leito_acids']""]"
412,N#CC(C#N)S(=O)(=O)c1cccc([N+](=O)[O-])c1,CC#N,46764-49-2,-,6.1899999999999995,"[6.16, 6.22]","[""['Ejoc202001649-sup-00001-misc_information.pdf', 'leito_acids']""]"
413,C[S@](=O)c1cccc(C(C)(C)C)c1[OH:13],O,0,0,9.5,[9.5],"[""['hunt_et_al']""]"
414,COC(=O)c1cc([OH:14])cc2ccccc12,O,0,0,8.88,[8.88],"[""['hunt_et_al']""]"
415,Cc1ccc([NH3+:8])cc1Cl,O,0,0,4.05,[4.05],"[""['hunt_et_al']""]"
416,Cc1cccc([NH2+:17][C@H]2CCc3ccccc32)c1,O,0,0,2.49,[2.49],"[""['hunt_et_al']""]"
417,Fc1c(F)c(F)c2c(c1F)Cc1c(F)c(F)c(F)c(F)c1-2,CS(=O)C,27053-34-5,"1,2,3,4,5,6,7,8-octafluoro-9H-fluorene",10.8,[10.8],"[""['Ejoc202001649-sup-00001-misc_information.pdf']""]"
418,CN(C)c1cc([OH:10])ncn1,O,0,0,10.49,[10.49],"[""['hunt_et_al']""]"
419,c1cc2cc[nH]c2[nH+:8]c1,O,0,0,4.5,[4.5],"[""['hunt_et_al']""]"
420,c1cc2cc([OH:11])ccc2cn1,O,0,0,9.17,[9.17],"[""['hunt_et_al']""]"
421,C[NH+:18](C)CCC(c1ccccc1)c1ccccc1,O,0,0,9.35,[9.35],"[""['hunt_et_al']""]"
422,O=C(C(Br)Br)[OH:4],O,0,0,1.39,[1.39],"[""['hunt_et_al']""]"
423,CN1CC[NH+:24](CC(=O)N2c3ccccc3C(=O)Nc3cccnc32)CC1,O,0,0,7.88,[7.88],"[""['hunt_et_al']""]"
424,Cc1[nH]c(=[NH2+:6])sc1C,O,0,0,6.3,[6.3],"[""['hunt_et_al']""]"
425,O=C(O)c1cc([N+](=O)[O-])cc([N+](=O)[O-])c1,CC#N,99-34-3,"3,5-dinitrobenzoic acid",17.0,[17.0],"[""['MeCN_Acids_COSMO-RS_2008_Table.pdf']""]"
426,Cc1c(C(F)(F)F)c(C(F)(F)F)c(C(F)(F)F)c(C(F)(F)F)c1C(F)(F)F,CS(=O)C,1018330-43-2,"1-methyl-2,3,4,5,6-pentakis(trifluoromethyl)benzene",13.9,[13.9],"[""['Ejoc202001649-sup-00001-misc_information.pdf']""]"
427,CCC(C)(C)[NH3+:6],O,0,0,10.72,[10.72],"[""['hunt_et_al']""]"
428,O=[N+]([O-])c1cccc2c1Nc1ccccc1O2,CC#N,26103-27-5,1-nitro-10H-phenoxazine,28.4,[28.4],"[""['MeCN_Acids_COSMO-RS_2008_Table.pdf']""]"
429,Cc1ccccc1S(=O)(=O)[NH:27]C(=O)N1CCC(N2CCC(Oc3ccc(Cl)c(Cl)c3)CC2)CC1,O,0,0,3.4,[3.4],"[""['hunt_et_al']""]"
430,Cc1ccc([NH+:10](C)C)cc1,O,0,0,5.627,[5.627],"[""['hunt_et_al']""]"
431,Nc1ccc2[nH+]ccnc2[nH+:10]1,O,0,0,-2.0,[-2.0],"[""['hunt_et_al']""]"
432,OC12C(F)(F)C3(F)C(F)(F)C(F)(C1(F)F)C(F)(F)C(F)(C2(F)F)C3(F)F,CC#N,160823-57-4,"2,2,3,4,4,5,6,6,7,8,8,9,9,10,10-pentadecafluoroadamantan-1-ol",18.25,[18.25],"[""['leito_acids']""]"
433,CS(=O)(=O)O,CC#N,75-75-2,methanesulfonic acid,9.97,"[9.97, 9.97, 9.97]","[""['MeCN_Acids_COSMO-RS_2008_Table.pdf', 'pKa_values_of_acids_in_acetonitrile.pdf', 'Ejoc202001649-sup-00001-misc_information.pdf']""]"
434,CC(C)(C)N[P+](N1CCCC1)(N1CCCC1)N1CCCC1,CS(=O)C,-,(tert-butylamino)-tripyrrolidin-1-ylphosphanium,17.4,[17.4],"[""['Bases_pKa_values_MeCN_DMSO_THF_Water.pdf']""]"
435,OCCSCC[NH3+:5],O,0,0,9.41,[9.41],"[""['hunt_et_al']""]"
436,Cc1ccc([NH2+:9]C)cc1,O,0,0,5.36,[5.36],"[""['hunt_et_al']""]"
437,O=[N+]([O-])c1cccc(S(=O)(=O)O)c1,CC#N,98-47-5,3-nitrobenzenesulfonic acid,6.614999999999999,"[6.65, 6.71, 6.4, 6.7]","[""['MeCN_Acids_COSMO-RS_2008_Table.pdf', 'DCE_2011_pKa_Table_MeCN.pdf', 'Ejoc202001649-sup-00001-misc_information.pdf', 'leito_acids']""]"
438,COc1nc(C)nc(NC(=O)[NH:20]S(=O)(=O)c2ccccc2CCC(F)(F)F)n1,O,0,0,3.76,[3.76],"[""['hunt_et_al']""]"
439,Cc1ccc([SH:8])cc1,O,0,0,6.82,[6.82],"[""['hunt_et_al']""]"
440,Cc1cc(C)c([OH:13])c(C(C)(C)C)c1,O,0,0,12.04,[12.04],"[""['hunt_et_al']""]"
441,N#Cc1ccc(C[NH3+:10])cc1,O,0,0,8.52,[8.52],"[""['hunt_et_al']""]"
442,CCOc1ccc([NH3+:9])cc1,O,0,0,5.2,[5.2],"[""['hunt_et_al']""]"
443,Oc1ccc(C(F)(F)F)cc1,CS(=O)C,402-45-9,4-(trifluoromethyl)phenol,14.6,[14.6],"[""['Ejoc202001649-sup-00001-misc_information.pdf']""]"
444,CC[NH+:12](CC)c1ccccc1C,O,0,0,7.239,[7.239],"[""['hunt_et_al']""]"
445,CCn1cc(C(=O)O)c(=O)c2cc(F)c(N3CC[NH2+:17]CC3)nc21,O,0,0,8.76,[8.76],"[""['hunt_et_al']""]"
446,CCCCC[N@@H+:20](CC[N+]1(C)CCCCC1)c1ccccc1,O,0,0,2.96,[2.96],"[""['hunt_et_al']""]"
447,C=CCc1c(C)nc(N)[nH+:10]c1C,O,0,0,5.1,[5.1],"[""['hunt_et_al']""]"
448,O=C(c1ccccc1/N=N/c1ccc(O)c(O)c1)[OH:19],O,0,0,3.12,[3.12],"[""['hunt_et_al']""]"
449,CC(C)[C@H](N)C(=O)[OH:8],O,0,0,2.29,[2.29],"[""['hunt_et_al']""]"
450,CCOC(=O)c1cc([NH3+:10])ccc1[N+](=O)[O-],O,0,0,-0.11,[-0.11],"[""['hunt_et_al']""]"
451,Cc1ccc(C(=O)N[OH:11])cc1,O,0,0,8.9,[8.9],"[""['hunt_et_al']""]"
452,COC(=O)c1ccc([NH2+:10]C)cc1,O,0,0,2.32,[2.32],"[""['hunt_et_al']""]"
453,Cc1nc(N)[nH+:6]cc1Br,O,0,0,2.61,[2.61],"[""['hunt_et_al']""]"
454,O=[N+]([O-])c1ccccc1O,CS(=O)C,88-75-5,2-nitrophenol,11.0,[11.0],"[""['Ejoc202001649-sup-00001-misc_information.pdf']""]"
455,Clc1cccc([OH:7])c1,O,0,0,9.08,[9.08],"[""['hunt_et_al']""]"
456,C[NH+:6](CCO)CCO,O,0,0,8.52,[8.52],"[""['hunt_et_al']""]"
457,N#Cc1cccc([NH3+:9])c1,O,0,0,2.748,[2.748],"[""['hunt_et_al']""]"
458,CCCC[NH2+:11]c1ccccc1,O,0,0,5.12,[5.12],"[""['hunt_et_al']""]"
459,CC(C)(C)c1cc(N=O)cc(C(C)(C)C)c1[OH:17],O,0,0,8.18,[8.18],"[""['hunt_et_al']""]"
460,N#Cc1ccc(C[C@@H](C(=O)O)N2CCC(C[NH+:29]3CCC(Oc4ccc(Cl)c(Cl)c4)CC3)CC2)cc1,O,0,0,8.9,[8.9],"[""['hunt_et_al']""]"
461,C[NH+:8]=C1CCCCC1,O,0,0,9.43,[9.43],"[""['hunt_et_al']""]"
462,Cc1cccc(C[NH2+:15]c2ccc([N+](=O)[O-])cc2[N+](=O)[O-])c1,O,0,0,-4.68,[-4.68],"[""['hunt_et_al']""]"
463,CCC[NH3+],C1CCOC1,,propylazanium,13.8,[13.8],"[""['Bases_pKa_values_MeCN_DMSO_THF_Water.pdf']""]"
464,O=[N+]([O-])c1ccc2c(c1)Oc1cc([N+](=O)[O-])cc([N+](=O)[O-])c1N2,CC#N,-,"1,3,7-trinitro-10H-phenoxazine",20.3,[20.3],"[""['MeCN_Acids_COSMO-RS_2008_Table.pdf']""]"
465,COc1ccc([C@@H](O)C[NH2+:12]C)cc1OC,O,0,0,9.51,[9.51],"[""['hunt_et_al']""]"
466,CC(C)C[NH2+:11]c1ccccc1,O,0,0,4.43,[4.43],"[""['hunt_et_al']""]"
467,Nc1ccc2ccccc2[nH+:10]1,O,0,0,7.3,[7.3],"[""['hunt_et_al']""]"
468,c1ncc([OH:7])cn1,O,0,0,6.8,[6.8],"[""['hunt_et_al']""]"
469,Cc1cccc(C(=O)O)c1C(=O)O,CC#N,37102-74-2,3-methylphthalic acid,17.0,[17.0],"[""['MeCN_Acids_COSMO-RS_2008_Table.pdf']""]"
470,O=[N+]([O-])c1cccc([N+](=O)[O-])c1O,CN(C)C=O,573-56-8,"2,6-dinitrophenol",6.18,[6.18],"[""['Ejoc202001649-sup-00001-misc_information.pdf']""]"
471,CNc1ncc(C(N)=O)c[nH+:7]1,O,0,0,2.05,[2.05],"[""['hunt_et_al']""]"
472,C[C@@H](O)C[N@H+:10](CCO)C(C)(C)C,O,0,0,9.2,[9.2],"[""['hunt_et_al']""]"
473,Oc1ccc(Cc2ccc([OH:14])cc2)cc1,O,0,0,7.55,[7.55],"[""['hunt_et_al']""]"
474,O=S(=O)(N=C(NS(=O)(=O)C(F)(F)F)c1ccccc1)C(F)(F)F,CC#N,500721-91-5,"N,N'-bis(trifluoromethylsulfonyl)benzenecarboximidamide",5.764,"[5.71, 5.68, 5.71, 6.04, 5.68]","[""['DCE_2011_pKa_Table_MeCN.pdf', 'pKa_values_of_acids_in_acetonitrile.pdf', 'leito_acids']"", ""['MeCN_Acids_COSMO-RS_2008_Table.pdf', 'Ejoc202001649-sup-00001-misc_information.pdf']""]"
475,Clc1ccccc1C(c1ccccc1)(c1ccccc1)n1cc[nH+:23]c1,O,0,0,5.8,[5.8],"[""['hunt_et_al']""]"
476,CN(C)[P+](Nc1ccccc1)(N(C)C)N(C)C,O,-,anilino-tris(dimethylamino)phosphanium,10.64,[10.64],"[""['Bases_pKa_values_MeCN_DMSO_THF_Water.pdf']""]"
477,O=c1nc([NH3+:13])[nH]c2c1ncn2COCCO,O,0,0,2.2,[2.2],"[""['hunt_et_al']""]"
478,O=C(c1cccc(C(F)(F)F)c1)N(c1ccccc1)[OH:17],O,0,0,8.15,[8.15],"[""['hunt_et_al']""]"
479,C[NH+:9](C)c1ccc([N+](=O)[O-])cc1[N+](=O)[O-],O,0,0,-1.0,[-1.0],"[""['hunt_et_al']""]"
480,CN(C)CCCC[NH+](C)C,CS(=O)C,-,4-(dimethylamino)butyl-dimethylazanium,10.0,[10.0],"[""['Bases_pKa_values_MeCN_DMSO_THF_Water.pdf']""]"
481,C1CCC2=NCCC[NH+]2CC1,CS(=O)C,-,"3,4,5,6,7,8,9,10-octahydro-2H-pyrimido[1,2-a]azepin-5-ium",13.9,"[13.9, 13.9]","[""['pKa_values_of_acids_and_bases_in_MeCN_DCE_DMSO_H2O_THF_C7_DME.pdf', 'Bases_pKa_values_MeCN_DMSO_THF_Water.pdf']""]"
482,CC(C)(C)c1cc(C=O)cc(C(C)(C)C)c1[OH:17],O,0,0,8.05,[8.05],"[""['hunt_et_al']""]"
483,CC(C)[N@H+:12]1CCCC(=O)[C@H](O)CCC1,O,0,0,8.1,[8.1],"[""['hunt_et_al']""]"
484,CN(C)c1cccc2cccc([NH+](C)C)c12,C1CCOC1,-,[8-(dimethylamino)naphthalen-1-yl]-dimethylazanium,11.1,[11.1],"[""['Bases_pKa_values_MeCN_DMSO_THF_Water.pdf']""]"
485,Cn1ccc([OH:9])nc1=O,O,0,0,9.71,[9.71],"[""['hunt_et_al']""]"
486,c1ccc2c(c1)Sc1ccccc1N2CC[NH+:20]1CCCC1,O,0,0,9.7,[9.7],"[""['hunt_et_al']""]"
487,CC(C)(C)[NH2+:11]c1ccc(Br)cc1,O,0,0,5.93,[5.93],"[""['hunt_et_al']""]"
488,N#CC(C#N)=C(Cl)C(C#N)C#N,C(CCl)Cl,1261286-80-9,"2-chloroprop-1-ene-1,1,3,3-tetracarbonitrile",32.9,[32.9],"[""['leito_acids']""]"
489,COc1cccc(OC)[nH+]1,CC#N,,"2,6-dimethoxypyridin-1-ium",7.64,[7.64],"[""['pKa_values_of_nitrogen_heterocycles.pdf']""]"
490,CCOC(=O)[C@H](CCc1ccccc1)[NH2+][C@@H](C)C(=O)N1CCC[C@H]1C(=O)[OH:26],O,0,0,3.1,[3.1],"[""['hunt_et_al']""]"
491,C[C@H](CO)Nc1nc(SCc2cccc(F)c2F)nc2c1ncc(=O)[nH:20]2,O,0,0,7.5,[7.5],"[""['hunt_et_al']""]"
492,[NH3+]c1ccccc1[N+](=O)[O-],CC#N,,(2-nitrophenyl)azanium,4.8,[4.8],"[""['pKa_values_of_nitrogen_heterocycles.pdf']""]"
493,O=C1c2cccc(O)c2C(=O)c2c1cccc2[OH:17],O,0,0,8.3,[8.3],"[""['hunt_et_al']""]"
494,O=S(=O)(O)c1ccc(Cl)cc1,CC#N,98-66-8,4-chlorobenzenesulfonic acid,7.1425,"[7.16, 7.21, 7.0, 7.2]","[""['MeCN_Acids_COSMO-RS_2008_Table.pdf', 'DCE_2011_pKa_Table_MeCN.pdf', 'Ejoc202001649-sup-00001-misc_information.pdf', 'leito_acids']""]"
495,O=C(Cc1ccccc1I)[OH:10],O,0,0,4.04,[4.04],"[""['hunt_et_al']""]"
496,Cc1ccc[nH+:7]c1N,O,0,0,7.24,[7.24],"[""['hunt_et_al']""]"
497,CC1(C)CC(C)(C)C[NH2+:10]C1,O,0,0,10.1,[10.1],"[""['hunt_et_al']""]"
498,Cc1c([N+](=O)[O-])cc(C(=O)[OH:16])cc1[N+](=O)[O-],O,0,0,2.97,[2.97],"[""['hunt_et_al']""]"
499,CC(Br)(Br)C(=O)[OH:5],O,0,0,1.48,[1.48],"[""['hunt_et_al']""]"
500,CC(C)(CO)[SH:6],O,0,0,9.85,[9.85],"[""['hunt_et_al']""]"
501,O=C(/C=C/c1cccc(O)c1)[OH:12],O,0,0,4.396,[4.396],"[""['hunt_et_al']""]"
502,C1CN=C2CCC[NH+]2C1,O,-,"3,4,5,6,7,8-hexahydro-2H-pyrrolo[1,2-a]pyrimidin-5-ium",13.5,[13.5],"[""['Bases_pKa_values_MeCN_DMSO_THF_Water.pdf']""]"
503,CSc1ccccc1[C@@H](O)C[NH2+:13]C(C)C,O,0,0,9.41,[9.41],"[""['hunt_et_al']""]"
504,[O-][Cl+3]([O-])([O-])O,O,7601-90-3,perchloric acid,-15.2,[-15.2],"[""['pKa_values_of_acids_and_bases_in_MeCN_DCE_DMSO_H2O_THF_C7_DME.pdf']""]"
505,CC(C)c1ccc([NH3+:10])cc1,O,0,0,4.85,[4.85],"[""['hunt_et_al']""]"
506,O=C(c1ccc2cccccc1-2)[OH:13],O,0,0,5.5,[5.5],"[""['hunt_et_al']""]"
507,O=C([O-])[C@H](c1ccccc1)N1CCC([NH+:25]2CCC(Oc3ccc(Cl)c(Cl)c3)CC2)CC1,O,0,0,9.1,[9.1],"[""['hunt_et_al']""]"
508,CCCCCCC[NH3+:8],O,0,0,10.66,[10.66],"[""['hunt_et_al']""]"
509,CCCc1c(C)nc(N)[nH+:10]c1C,O,0,0,5.42,[5.42],"[""['hunt_et_al']""]"
510,C[C@H]([C@@H](O)c1ccc(O)cc1)[NH3+:10],O,0,0,8.7,[8.7],"[""['hunt_et_al']""]"
511,OC(C(F)(F)F)(C(F)(F)F)C(F)(F)F,CS(=O)C,1/2/78,"1,1,1,3,3,3-hexafluoro-2-(trifluoromethyl)propan-2-ol",10.7,[10.7],"[""['Ejoc202001649-sup-00001-misc_information.pdf']""]"
512,Cc1ccccc1C[NH3+:9],O,0,0,9.19,[9.19],"[""['hunt_et_al']""]"
513,[NH3+]c1ccc(C(F)(F)F)cc1,CC#N,,(4-(trifluoromethyl)phenyl)azanium,8.03,[8.03],"[""['pKa_values_of_nitrogen_heterocycles.pdf']""]"
514,O=[N+]([O-])c1cc2c(c([N+](=O)[O-])c1)Nc1c(cc([N+](=O)[O-])cc1[N+](=O)[O-])O2,CC#N,24050-28-0,"1,3,7,9-tetranitro-10H-phenoxazine",18.8,[18.8],"[""['MeCN_Acids_COSMO-RS_2008_Table.pdf']""]"
515,CN1CCC[NH+]2CCCN=C12,C1CCOC1,-,"1-methyl-3,4,5,6,7,8-hexahydro-2H-pyrimido[1,2-a]pyrimidin-5-ium",18.0,[18.0],"[""['Bases_pKa_values_MeCN_DMSO_THF_Water.pdf']""]"
516,NCCC[NH3+],CC#N,-,3-aminopropylazanium,19.76,[19.76],"[""['Bases_pKa_values_MeCN_DMSO_THF_Water.pdf']""]"
517,c1csc([C@@H]2CCC[NH2+:9]2)c1,O,0,0,9.35,[9.35],"[""['hunt_et_al']""]"
518,CCOC(=O)C(C#N)c1c(F)c(F)c2c(F)c(F)c(F)c(F)c2c1F,C(CCl)Cl,62325-34-2,"ethyl 2-cyano-2-(1,3,4,5,6,7,8-heptafluoronaphthalen-2-yl)acetate",52.0,"[52.0, 52.0]","[""['leito_acids']"", ""['Ejoc202001649-sup-00001-misc_information.pdf']""]"
519,c1ccc2[nH]ccc2c1,CN(C)C=O,120-72-9,1H-indole,21.65,[21.65],"[""['Ejoc202001649-sup-00001-misc_information.pdf']""]"
520,O=C(O)[C@H](c1ccccc1)[NH+:27]1CCC(CN2CCC(Oc3ccc(Cl)c(Cl)c3)CC2)CC1,O,0,0,9.6,[9.6],"[""['hunt_et_al']""]"
521,Cc1cc([OH:8])ccc1Cl,O,0,0,9.55,[9.55],"[""['hunt_et_al']""]"
522,N#CCC(=O)O,CC#N,372-09-8,2-cyanoacetic acid,18.0,[18.0],"[""['MeCN_Acids_COSMO-RS_2008_Table.pdf']""]"
523,COc1ccc([NH:14]S(=O)(=O)c2ccccc2)cc1,O,0,0,8.7,[8.7],"[""['hunt_et_al']""]"
524,CC(C)(C)C[OH:6],O,0,0,16.04,[16.04],"[""['hunt_et_al']""]"
525,c1cnc2nc([NH3+:11])ccc2n1,O,0,0,4.25,[4.25],"[""['hunt_et_al']""]"
526,CO/N=C1\CN(c2nc3c(cc2F)c(=O)c(C(=O)[OH:26])cn3C2CC2)C[C@@H]1CN,O,0,0,6.36,[6.36],"[""['hunt_et_al']""]"
527,N#Cc1ccc([NH3+:9])cc1,O,0,0,1.739,[1.739],"[""['hunt_et_al']""]"
528,C1CC[NH2+]CC1,CS(=O)C,17523-59-0,piperidin-1-ium,10.85,[10.85],"[""['Bases_pKa_values_MeCN_DMSO_THF_Water.pdf']""]"
529,CC(C)[NH+:9](CCO)C(C)C,O,0,0,10.08,[10.08],"[""['hunt_et_al']""]"
530,O=S(=O)(NS(=O)(=O)C(F)(F)F)c1ccccc1,CC#N,174788-87-5,N-(trifluoromethylsulfonyl)benzenesulfonamide,5.6275,"[5.55, 5.52, 5.55, 5.89]","[""['DCE_2011_pKa_Table_MeCN.pdf', 'Ejoc202001649-sup-00001-misc_information.pdf', 'leito_acids']"", ""['MeCN_Acids_COSMO-RS_2008_Table.pdf']""]"
531,CN(C)[C@@H]1CCc2c(ccc([OH:14])c2O)C1,O,0,0,8.85,[8.85],"[""['hunt_et_al']""]"
532,Cc1cc(C(C)(C)C)cc(C)c1CC1=[NH+:17]CCN1,O,0,0,10.6,[10.6],"[""['hunt_et_al']""]"
533,ClC(Cl)=CCC[NH3+:5],O,0,0,10.12,[10.12],"[""['hunt_et_al']""]"
534,O=c1[nH]cc([SH:9])c(=O)[nH]1,O,0,0,5.3,[5.3],"[""['hunt_et_al']""]"
535,O=C(Cc1cccc2ccccc12)[OH:14],O,0,0,4.23,[4.23],"[""['hunt_et_al']""]"
536,O=C(C(c1ccccc1)(c1ccccc1)c1ccccc1)[OH:22],O,0,0,3.96,[3.96],"[""['hunt_et_al']""]"
537,CCCC[NH+:7]1CC1,O,0,0,7.86,[7.86],"[""['hunt_et_al']""]"
538,ClC(Cl)(Cl)CC[NH3+:4],O,0,0,9.65,[9.65],"[""['hunt_et_al']""]"
539,Brc1cccc([NH3+:7])c1,O,0,0,3.58,[3.58],"[""['hunt_et_al']""]"
540,O=C(NCC12CC3CC(CC(C3)C1)C2)c1cc(CN2C[C@H]3C[NH2+:26]C[C@@H](C2)O3)ccc1Cl,O,0,0,10.0,[10.0],"[""['hunt_et_al']""]"
541,CC[C@@H](Oc1ccc(C(F)(F)F)cc1-c1ccc(S(=O)(=O)CC)cc1C)C(=O)[OH:24],O,0,0,3.4,[3.4],"[""['hunt_et_al']""]"
542,CNc1ncc(Br)c[nH+:6]1,O,0,0,2.09,[2.09],"[""['hunt_et_al']""]"
543,CC(C)OP(=O)(OCC[NH+:11](C)C)OC(C)C,O,0,0,8.06,[8.06],"[""['hunt_et_al']""]"
544,C1CC[C@@H]2CC[NH2+:10]C[C@H]2C1,O,0,0,11.32,[11.32],"[""['hunt_et_al']""]"
545,c1cncc([OH:7])c1,O,0,0,8.72,[8.72],"[""['hunt_et_al']""]"
546,Brc1cc(Br)cc([NH3+:7])c1,O,0,0,2.34,[2.34],"[""['hunt_et_al']""]"
547,C1CCC(C[NH3+:8])CC1,O,0,0,10.49,[10.49],"[""['hunt_et_al']""]"
548,C1=CC=[N+]C=C1,O,16969-45-2,pyridin-1-ium,5.25,[5.25],"[""['pKa_values_of_acids_and_bases_in_MeCN_DCE_DMSO_H2O_THF_C7_DME.pdf']""]"
549,COc1cc2ncnc(Nc3ccc(F)c(Cl)c3)c2cc1NC(=O)/C=C/C[NH+:27]1CCCCC1,O,0,0,9.36,[9.36],"[""['hunt_et_al']""]"
550,Cc1cccc(N)[nH+:7]1,O,0,0,7.41,[7.41],"[""['hunt_et_al']""]"
551,CCCN(CCC)CCc1ccc([OH:20])c(NC(C)=O)c1,O,0,0,8.75,[8.75],"[""['hunt_et_al']""]"
552,O=C(NCC12CC3CC(CC(C3)C1)C2)c1cc(CN2CC[NH2+:24]CC2)ccc1Cl,O,0,0,8.85,[8.85],"[""['hunt_et_al']""]"
553,Brc1ccc([C@@H]2C[C@H]2[NH3+:10])cc1,O,0,0,8.13,[8.13],"[""['hunt_et_al']""]"
554,COc1ccc([C@@H]2CCC[N@H+:13]2C)cc1,O,0,0,8.9,[8.9],"[""['hunt_et_al']""]"
555,O=[N+]([O-])c1ccc(O)cc1C(F)(F)F,CC#N,88-30-2,4-nitro-3-(trifluoromethyl)phenol,19.3,[19.3],"[""['MeCN_Acids_COSMO-RS_2008_Table.pdf']""]"
556,O=c1[n-]c(=O)c([SH:9])c[nH]1,O,0,0,5.3,[5.3],"[""['hunt_et_al']""]"
557,COc1c(N2CC[NH2+][C@H](C)C2)c(F)cc2c(=O)c(C(=O)[OH:25])cn(C3CC3)c12,O,0,0,6.05,[6.05],"[""['hunt_et_al']""]"
558,CN1CC[NH+](C)CC1,CS(=O)C,-,"1,4-dimethylpiperazin-1-ium",7.7,[7.7],"[""['Bases_pKa_values_MeCN_DMSO_THF_Water.pdf']""]"
559,N#Cc1cc([N+](=O)[O-])cc([NH3+:9])c1,O,0,0,0.45,[0.45],"[""['hunt_et_al']""]"
560,Cc1cc([N+](=O)[O-])ccc1C(=O)[OH:13],O,0,0,2.95,[2.95],"[""['hunt_et_al']""]"
561,CC(C)[NH2+:8]C[Si](C)(C)C,O,0,0,10.8,[10.8],"[""['hunt_et_al']""]"
562,Oc1ccc(Cl)c(Cl)c1,CC#N,95-77-2,"3,4-dichlorophenol",24.0,[24.0],"[""['MeCN_Acids_COSMO-RS_2008_Table.pdf']""]"
563,Cc1ccc2ccccc2c1C(=O)[OH:14],O,0,0,3.107,[3.107],"[""['hunt_et_al']""]"
564,CC(C)[N@H+:18](CC[N+]1(C)CCCCC1)c1ccccc1,O,0,0,3.26,[3.26],"[""['hunt_et_al']""]"
565,OCCCCC[NH3+:6],O,0,0,10.46,[10.46],"[""['hunt_et_al']""]"
566,C[NH+]1CCCCC1,O,-,1-methylpiperidin-1-ium,10.08,[10.08],"[""['Bases_pKa_values_MeCN_DMSO_THF_Water.pdf']""]"
567,N#CC(C#N)c1c(F)c(F)c(C(F)(F)F)c(F)c1F,C(CCl)Cl,55852-24-9,"2-[2,3,5,6-tetrafluoro-4-(trifluoromethyl)phenyl]propanedinitrile",44.2,"[44.2, 44.2]","[""['Ejoc202001649-sup-00001-misc_information.pdf', 'leito_acids']""]"
568,Nc1cccc(N)[nH+]1,CC#N,,"pyridin-1-ium-2,6-diamine",14.77,[14.77],"[""['pKa_values_of_nitrogen_heterocycles.pdf']""]"
569,CC(=O)O,CC#N,64-19-7,acetic acid,23.506000000000004,"[23.51, 23.51, 23.5, 23.5, 23.51]","[""['MeCN_Acids_COSMO-RS_2008_Table.pdf', 'pKa_values_of_acids_and_bases_in_MeCN_DCE_DMSO_H2O_THF_C7_DME.pdf', 'pKa_values_of_acids_in_acetonitrile.pdf', 'Ejoc202001649-sup-00001-misc_information.pdf', 'leito_acids']""]"
570,C1=C[C@@H]([NH3+:7])CCC1,O,0,0,10.42,[10.42],"[""['hunt_et_al']""]"
571,CC(C)[NH2+:16]C[C@@H](O)COc1cccc2[nH]ccc12,O,0,0,9.62,[9.62],"[""['hunt_et_al']""]"
572,O=S(=O)(O)C(F)(F)F,CC#N,1493-13-6,trifluoromethanesulfonic acid,2.6,"[2.6, 2.6]","[""['MeCN_Acids_COSMO-RS_2008_Table.pdf', 'pKa_values_of_acids_and_bases_in_MeCN_DCE_DMSO_H2O_THF_C7_DME.pdf']""]"
573,NC1=[NH+:13][C@H](c2ccco2)Nc2c(F)ccc(F)c21,O,0,0,8.2,[8.2],"[""['hunt_et_al']""]"
574,O=C(/C=C/c1ccccc1Br)[OH:11],O,0,0,4.33,[4.33],"[""['hunt_et_al']""]"
575,C1C[NH2+:5]CCO1,O,0,0,8.5,[8.5],"[""['hunt_et_al']""]"
576,C[NH2+:9]Cc1ccccc1,O,0,0,9.59,[9.59],"[""['hunt_et_al']""]"
577,O=C(CCCO)[OH:6],O,0,0,4.71,[4.71],"[""['hunt_et_al']""]"
578,CC(C)(O)C(=O)[OH:6],O,0,0,4.04,[4.04],"[""['hunt_et_al']""]"
579,Cn1cc[nH+]c1C(=O)[OH:9],O,0,0,1.53,[1.53],"[""['hunt_et_al']""]"
580,O=C(c1cc(O)c(O)c(O)c1)[OH:12],O,0,0,4.21,[4.21],"[""['hunt_et_al']""]"
581,c1cc2c(c([NH3+:11])c1)CCCC2,O,0,0,4.47,[4.47],"[""['hunt_et_al']""]"
582,Oc1ccccc1C(c1ccccc1)=[NH2+:14],O,0,0,5.0,[5.0],"[""['hunt_et_al']""]"
583,CC(C)C[C@@H](c1ccccc1)[NH3+:12],O,0,0,9.47,[9.47],"[""['hunt_et_al']""]"