,Solute SMILES,Solvent SMILES,Solute CAS,Solute IUPAC,pKa (avg),pKa (all),Source (all)
1515,FC(F)(F)C[NH3+:3],O,0,0,5.7,[5.7],"[""['hunt_et_al']""]"
1516,O=C(C[N+](=O)[O-])[OH:7],O,0,0,1.48,[1.48],"[""['hunt_et_al']""]"
1517,CCOC(=O)N1CC[NH+:10](C)CC1,O,0,0,7.31,[7.31],"[""['hunt_et_al']""]"
1518,O=S(=O)(C(c1ccccc1)S(=O)(=O)C(F)(F)F)C(F)(F)F,CC#N,40906-82-9,bis(trifluoromethylsulfonyl)methylbenzene,7.802,"[7.85, 7.85, 7.73, 7.73, 7.85]","[""['MeCN_Acids_COSMO-RS_2008_Table.pdf', 'DCE_2011_pKa_Table_MeCN.pdf', 'pKa_values_of_acids_in_acetonitrile.pdf', 'Ejoc202001649-sup-00001-misc_information.pdf', 'leito_acids']""]"
1519,CCCC[NH+:9](CCCl)CCCl,O,0,0,6.61,[6.61],"[""['hunt_et_al']""]"
1520,NS(=O)(=O)c1ccc(F)cc1,CN(C)C=O,402-46-0,4-fluorobenzenesulfonamide,16.67,[16.67],"[""['Ejoc202001649-sup-00001-misc_information.pdf']""]"
1521,O=[S@@](Cc1ccccn1)c1nc2ccccc2[nH:16]1,O,0,0,8.8,[8.8],"[""['hunt_et_al']""]"
1522,O=[N+]([O-])c1cc([N+](=O)[O-])c(O)c([N+](=O)[O-])c1O,C(CCl)Cl,82-71-3,"2,4,6-trinitrobenzene-1,3-diol",44.1,[44.1],"[""['leito_acids']""]"
1523,CC1CC[NH+:8](C)CC1,O,0,0,10.05,[10.05],"[""['hunt_et_al']""]"
1524,O=C(c1ccc([C@@]23CCCC[C@@H]2C3)cc1)[OH:16],O,0,0,4.16,[4.16],"[""['hunt_et_al']""]"
1525,CC(C)(C)[N@H+:13]1CCCC(=O)[C@H](O)CCC1,O,0,0,7.6,[7.6],"[""['hunt_et_al']""]"
1526,c1ccc(CCC[NH2+:25]C(CC2CCCCC2)CC2CCCCC2)cc1,O,0,0,7.8,[7.8],"[""['hunt_et_al']""]"
1527,C[C@@H](c1cccc(C(F)(F)F)c1)[NH3+:10],O,0,0,8.77,[8.77],"[""['hunt_et_al']""]"
1528,[NH3+]c1ccccc1Cl,CC#N,,(2-chlorophenyl)azanium,7.86,[7.86],"[""['pKa_values_of_nitrogen_heterocycles.pdf']""]"
1529,COCCc1ccc(OC[C@H](O)C[NH2+:16]C(C)C)cc1,O,0,0,9.649999999999999,"[9.6, 9.7]","[""['hunt_et_al']"", ""['hunt_et_al']""]"
1530,Cc1cc(Br)cc(C)c1[NH3+:9],O,0,0,3.54,[3.54],"[""['hunt_et_al']""]"
1531,CC[NH+:9](CC)CCC(C)=O,O,0,0,9.04,[9.04],"[""['hunt_et_al']""]"
1532,c1cc2ccc([OH:11])cc2nn1,O,0,0,7.59,[7.59],"[""['hunt_et_al']""]"
1533,c1nc(CC[NH3+:8])c[nH]1,O,0,0,9.7,[9.7],"[""['hunt_et_al']""]"
1534,O=C([O-])[C@@H]1Cc2c([nH]c3ccccc23)[C@H](c2ccccc2)[NH2+:20]1,O,0,0,8.0,[8.0],"[""['hunt_et_al']""]"
1535,[NH3+]Cc1ccccc1,CS(=O)C,-,benzylazanium,10.16,[10.16],"[""['Bases_pKa_values_MeCN_DMSO_THF_Water.pdf']""]"
1536,CC(=O)N[C@H](C(=O)[O-])C(C)(C)[SH:12],O,0,0,9.9,[9.9],"[""['hunt_et_al']""]"
1537,c1ccc2c([OH:11])ccnc2c1,O,0,0,11.28,[11.28],"[""['hunt_et_al']""]"
1538,C[C@@H]1COc2c(N3CC[NH+:21](C)CC3)c(F)cc3c(=O)c(C(=O)[O-])cn1c23,O,0,0,8.1,[8.1],"[""['hunt_et_al']""]"
1539,CC(C)C[N@@H+:19](CC[N+]1(C)CCCCC1)c1ccccc1,O,0,0,3.02,[3.02],"[""['hunt_et_al']""]"
1540,O=[N+]([O-])c1ccc(S(=O)(=O)O)c([N+](=O)[O-])c1,C(CCl)Cl,89-02-1,"2,4-dinitrobenzenesulfonic acid",36.0,"[36.0, 36.0]","[""['Ejoc202001649-sup-00001-misc_information.pdf', 'leito_acids']""]"
1541,CC(=O)NCC[SH:7],O,0,0,9.92,[9.92],"[""['hunt_et_al']""]"
1542,O=C1C(O)=C(Oc2ccccc2)C(=O)C([OH:21])=C1Oc1ccccc1,O,0,0,2.0,[2.0],"[""['hunt_et_al']""]"
1543,CN(C)[P+](NC(C)(C)C)(N(C)C)N(C)C,CS(=O)C,-,(tert-butylamino)-tris(dimethylamino)phosphanium,15.7,[15.7],"[""['Bases_pKa_values_MeCN_DMSO_THF_Water.pdf']""]"
1544,CC[C@@](CC(=O)OC)(Cc1ccc([N+](=O)[O-])cc1)C(=O)[OH:20],O,0,0,3.7,[3.7],"[""['hunt_et_al']""]"
1545,c1ccc2[nH]ccc2c1,CC#N,120-72-9,1H-indole,32.57,[32.57],"[""['Ejoc202001649-sup-00001-misc_information.pdf']""]"
1546,O=[N+]([O-])c1ccc([NH2+:14]Cc2cccc(F)c2)c([N+](=O)[O-])c1,O,0,0,-5.46,[-5.46],"[""['hunt_et_al']""]"
1547,O=C1c2ccccc2C(=O)c2cc(C(=O)[OH:19])ccc21,O,0,0,3.42,[3.42],"[""['hunt_et_al']""]"
1548,[NH4+],CS(=O)C,14798-03-9,azanium,10.5,[10.5],"[""['Bases_pKa_values_MeCN_DMSO_THF_Water.pdf']""]"
1549,O=[N+]([O-])c1ccc2[nH]ccc2c1,CC#N,6146-52-7,5-nitro-1H-indole,28.18,"[28.18, 28.18]","[""['pKa_values_of_acids_in_acetonitrile.pdf', 'Ejoc202001649-sup-00001-misc_information.pdf']""]"
1550,O=C(c1ccccc1C(F)(F)F)N(c1ccccc1)[OH:17],O,0,0,7.88,[7.88],"[""['hunt_et_al']""]"
1551,COc1ccc([C@@H]2C[C@H]2[NH3+:11])cc1,O,0,0,8.32,[8.32],"[""['hunt_et_al']""]"
1552,NCCCCC[NH3+],CC#N,-,5-aminopentylazanium,19.14,[19.14],"[""['Bases_pKa_values_MeCN_DMSO_THF_Water.pdf']""]"
1553,Cl,C(CCl)Cl,7647-01-0,chlorane,45.20000000000001,"[45.2, 45.2, 45.2]","[""['pKa_values_of_acids_and_bases_in_MeCN_DCE_DMSO_H2O_THF_C7_DME.pdf', 'Ejoc202001649-sup-00001-misc_information.pdf', 'leito_acids']""]"
1554,CSc1ccc([NH3+:8])cc1,O,0,0,4.35,[4.35],"[""['hunt_et_al']""]"
1555,CSc1ccc([NH3+:8])cc1Cl,O,0,0,3.38,[3.38],"[""['hunt_et_al']""]"
1556,CCOc1cccc([OH:9])c1,O,0,0,9.655,[9.655],"[""['hunt_et_al']""]"
1557,O=C(/C=C/c1ccccc1[N+](=O)[O-])[OH:14],O,0,0,4.15,[4.15],"[""['hunt_et_al']""]"
1558,O=[N+]([O-])c1ccc(O)c([N+](=O)[O-])c1,CS(=O)C,51-28-5,"2,4-dinitrophenol",5.25,"[5.4, 5.1]","[""['pKa_values_of_acids_and_bases_in_MeCN_DCE_DMSO_H2O_THF_C7_DME.pdf', 'Ejoc202001649-sup-00001-misc_information.pdf']""]"
1559,CCC[NH2+:12]C[C@H](O)c1ccc(O)c(O)c1,O,0,0,8.57,[8.57],"[""['hunt_et_al']""]"
1560,CC1=C(CC(=O)[OH:23])c2cc(F)ccc2/C1=C\c1ccc([S@](C)=O)cc1,O,0,0,3.9,[3.9],"[""['hunt_et_al']""]"
1561,C/C=C(/C)C(=O)[OH:7],O,0,0,4.29,[4.29],"[""['hunt_et_al']""]"
1562,CCOCC(=O)[OH:6],O,0,0,3.84,[3.84],"[""['hunt_et_al']""]"
1563,Clc1ccc2c([NH3+:11])cccc2c1,O,0,0,3.48,[3.48],"[""['hunt_et_al']""]"
1564,N#CC(c1c(F)c(F)c(F)c(F)c1F)c1c(F)c(F)c(F)c(F)c1F,CC#N,42238-34-6,"2,2-bis(2,3,4,5,6-pentafluorophenyl)acetonitrile",21.096000000000004,"[21.1, 21.1, 21.09, 21.09, 21.1]","[""['MeCN_Acids_COSMO-RS_2008_Table.pdf', 'pKa_values_of_acids_and_bases_in_MeCN_DCE_DMSO_H2O_THF_C7_DME.pdf', 'pKa_values_of_acids_in_acetonitrile.pdf', 'Ejoc202001649-sup-00001-misc_information.pdf', 'leito_acids']""]"
1565,C1CCC([NH2+:13]C2CCCCC2)CC1,O,0,0,11.25,[11.25],"[""['hunt_et_al']""]"
1566,CC(C)(C)[SH:5],O,0,0,11.22,[11.22],"[""['hunt_et_al']""]"
1567,O=C(c1c(Cl)ccc2cc(Cl)cnc12)[OH:13],O,0,0,4.34,[4.34],"[""['hunt_et_al']""]"
1568,O=C(NCC12CC3CC(CC(C3)C1)C2)c1cc(N2CC[NH2+:23]CC2)ncc1Cl,O,0,0,8.5,[8.5],"[""['hunt_et_al']""]"
1569,c1cc([NH3+:13])ccc1C1CCCCC1,O,0,0,4.96,[4.96],"[""['hunt_et_al']""]"
1570,C[NH2+:4]CCO,O,0,0,9.88,[9.88],"[""['hunt_et_al']""]"
1571,Cc1[nH]cnc1CSCCN/C(NC#N)=[NH+:13]/C,O,0,0,6.8,[6.8],"[""['hunt_et_al']""]"
1572,N#CC(C#N)c1c(C(F)(F)F)cc(C(F)(F)F)c(C(F)(F)F)c1C(F)(F)F,C(CCl)Cl,1018330-49-8,"2-(2,3,4,6-tetrakis(trifluoromethyl)phenyl)malononitrile",44.2,"[44.2, 44.2]","[""['Ejoc202001649-sup-00001-misc_information.pdf', 'leito_acids']""]"
1573,CC[NH2+:19]CCC(=O)C(c1ccccc1)c1ccccc1,O,0,0,9.55,[9.55],"[""['hunt_et_al']""]"
1574,CCc1cccc([NH3+:9])c1,O,0,0,4.7,[4.7],"[""['hunt_et_al']""]"
1575,CCn1cc(C(=O)[O-])c(=O)c2cc(F)c(N3CC[NH2+:17]CC3)nc21,O,0,0,8.76,[8.76],"[""['hunt_et_al']""]"
1576,C[C@H]1CN(c2c(F)c(N)c3c(=O)c(C(=O)[O-])cn(C4CC4)c3c2F)C[C@@H](C)[NH2+:20]1,O,0,0,8.94,[8.94],"[""['hunt_et_al']""]"
1577,CN(C)c1ccc(S(=O)(=O)[NH:28]C(=O)N2CCC(N3CCC(Oc4ccc(Cl)c(Cl)c4)CC3)CC2)cc1,O,0,0,6.1,[6.1],"[""['hunt_et_al']""]"
1578,O=S(=O)(N=C(NS(=O)(=O)C(F)(F)F)c1ccc(Cl)cc1)C(F)(F)F,C(CCl)Cl,500721-95-9,"4-chloro-N,N'-bis(trifluoromethylsulfonyl)benzenecarboximidamide",32.7,[32.7],"[""['leito_acids']""]"
1579,O=C([O-])COc1ccc(Cl)cc1C[NH+:21]1CCC(S(=O)(=O)c2ccccc2)CC1,O,0,0,7.8,[7.8],"[""['hunt_et_al']""]"
1580,C[N@@H+]1CCC[C@H]1c1ccc[nH+:11]c1,O,0,0,3.2,[3.2],"[""['hunt_et_al']""]"
1581,OCC[NH3+:3],O,0,0,9.51,[9.51],"[""['hunt_et_al']""]"
1582,CCC[NH2+:10]c1ccccc1,O,0,0,4.79,[4.79],"[""['hunt_et_al']""]"
1583,O=C(O)c1cccc(C(=O)O)c1,CC#N,121-91-5,"benzene-1,3-dicarboxylic acid",19.3,[19.3],"[""['MeCN_Acids_COSMO-RS_2008_Table.pdf']""]"
1584,CC(C)(O)c1ccccc1CC[C@@H](SCC1(CC(=O)O)CC1)c1cccc(/C=C/c2ccc3ccc(Cl)cc3[nH+:36]2)c1,O,0,0,5.6,[5.6],"[""['hunt_et_al']""]"
1585,C[NH+:18]1[C@H]2CC[C@@H]1CC(OC(=O)[C@H](CO)c1ccccc1)C2,O,0,0,9.84,[9.84],"[""['hunt_et_al']""]"
1586,Cc1cccc(O)c1C(=O)[OH:11],O,0,0,3.32,[3.32],"[""['hunt_et_al']""]"
1587,Cc1c(F)c(F)c(C(C#N)c2c(F)c(F)c(F)c(F)c2F)c(F)c1F,CC#N,52345-34-3,"2-(2,3,4,5,6-pentafluorophenyl)-2-(2,3,5,6-tetrafluoro-4-methylphenyl)acetonitrile",21.94,"[21.94, 21.94, 21.94]","[""['a_unified_view_to_bronsted_acidity_scales.pdf', 'pKa_values_of_acids_in_acetonitrile.pdf', 'leito_acids']""]"
1588,C[NH+:18](C)CCOC(c1ccccc1)c1ccccc1,O,0,0,9.1,[9.1],"[""['hunt_et_al']""]"
1589,O=C(COc1ccccc1F)[OH:10],O,0,0,3.08,[3.08],"[""['hunt_et_al']""]"
1590,C[C@H]1C[NH+:9]=C(N)c2sccc2O1,O,0,0,11.0,[11.0],"[""['hunt_et_al']""]"
1591,C[N+](C)(C)c1ccc(CC(=O)[OH:14])cc1,O,0,0,3.75,[3.75],"[""['hunt_et_al']""]"
1592,CCOC(=O)c1cc(C(C)(C)C)c([OH:19])c(C(C)(C)C)c1,O,0,0,9.5,[9.5],"[""['hunt_et_al']""]"
1593,COc1cccc([NH3+:8])c1,O,0,0,4.2,[4.2],"[""['hunt_et_al']""]"
1594,CCc1ccc([OH:9])cc1,O,0,0,10.0,[10.0],"[""['hunt_et_al']""]"
1595,N#CC(C#N)=C(Br)C(C#N)C#N,C(CCl)Cl,100125-09-5,"2-bromoprop-1-ene-1,1,3,3-tetracarbonitrile",33.2,[33.2],"[""['leito_acids']""]"
1596,O=[N+]([O-])c1ccc(O)cc1,CC#N,100-02-7,4-nitrophenol,20.7,[20.7],"[""['MeCN_Acids_COSMO-RS_2008_Table.pdf']""]"
1597,c1cnc[nH+]c1,CS(=O)C,-,pyrimidin-1-ium,0.55,[0.55],"[""['Bases_pKa_values_MeCN_DMSO_THF_Water.pdf']""]"
1598,COC(=O)c1ccc(I)cc1S(=O)(=O)[NH:19]C(=O)Nc1nc(C)nc(OC)n1,O,0,0,3.22,[3.22],"[""['hunt_et_al']""]"
1599,CC[N@@H+:17](CC[N+]1(C)CCCCC1)c1ccccc1,O,0,0,2.77,[2.77],"[""['hunt_et_al']""]"
1600,NS(=O)(=O)c1cccc([N+](=O)[O-])c1,CS(=O)C,121-52-8,3-nitrobenzenesulfonamide,14.9,[14.9],"[""['Ejoc202001649-sup-00001-misc_information.pdf']""]"
1601,Oc1ccccc1,CN(C)C=O,108-95-2,phenol,18.4,[18.4],"[""['Ejoc202001649-sup-00001-misc_information.pdf']""]"
1602,O=[N+]([O-])c1ccc(S(=O)(=O)NS(=O)(=O)C(F)(F)F)cc1,CC#N,174788-91-1,4-nitro-N-(trifluoromethylsulfonyl)benzenesulfonamide,4.118333333333333,"[4.39, 4.04, 4.08, 4.08, 4.04, 4.08]","[""['MeCN_Acids_COSMO-RS_2008_Table.pdf', 'Ejoc202001649-sup-00001-misc_information.pdf']"", ""['DCE_2011_pKa_Table_MeCN.pdf', 'a_unified_view_to_bronsted_acidity_scales.pdf', 'pKa_values_of_acids_in_acetonitrile.pdf', 'leito_acids']""]"
1603,CC[SH:3],O,0,0,10.61,[10.61],"[""['hunt_et_al']""]"
1604,O=C(COc1cccc(F)c1)[OH:10],O,0,0,3.07,[3.07],"[""['hunt_et_al']""]"
1605,CCCCP(=O)(CCCC)[C@@](C)(O)C(=O)[OH:14],O,0,0,2.94,[2.94],"[""['hunt_et_al']""]"
1606,O=C(/C=C/c1ccccc1)[OH:11],O,0,0,4.45,[4.45],"[""['hunt_et_al']""]"
1607,N#CC(C#N)=C(C#N)C(C#N)C#N,C(CCl)Cl,45078-17-9,"prop-1-ene-1,1,2,3,3-pentacarbonitrile",29.7,[29.7],"[""['leito_acids']""]"
1608,COc1cc([C@@H](O)C[NH2+:11]C)ccc1O,O,0,0,9.52,[9.52],"[""['hunt_et_al']""]"
1609,N#Cc1c(F)c(F)c(N)c(F)c1F,CS(=O)C,17823-38-0,"4-amino-2,3,5,6-tetrafluorobenzonitrile",17.2,[17.2],"[""['Ejoc202001649-sup-00001-misc_information.pdf']""]"
1610,O=[N+]([O-])c1ccc([NH2+:14]Cc2ccc(F)cc2)c([N+](=O)[O-])c1,O,0,0,-4.99,[-4.99],"[""['hunt_et_al']""]"
1611,c1cc[nH+:14]c(CSc2nc3ccccc3o2)c1,O,0,0,4.3,[4.3],"[""['hunt_et_al']""]"
1612,N#CC(c1ccc(C(F)(F)F)cc1)c1c(F)c(F)c(F)c(F)c1F,CC#N,42238-35-7,2-(perfluorophenyl)-2-(4-(trifluoromethyl)phenyl)acetonitrile,18.134999999999998,"[18.14, 18.13]","[""['MeCN_Acids_COSMO-RS_2008_Table.pdf', 'Ejoc202001649-sup-00001-misc_information.pdf']""]"
1613,O=C(CCc1ccccc1)[OH:11],O,0,0,4.664,[4.664],"[""['hunt_et_al']""]"
1614,C[C@H]1COc2c(N3CCN(C)CC3)c(F)cc3c(=O)c(C(=O)[OH:25])cn1c23,O,0,0,6.06,[6.06],"[""['hunt_et_al']""]"
1615,C[N+](C)(C)CCCc1cccc([OH:14])c1,O,0,0,9.64,[9.64],"[""['hunt_et_al']""]"
1616,Nc1ccc2c(ncc[nH+:8]2)[nH+]1,O,0,0,-2.0,[-2.0],"[""['hunt_et_al']""]"
1617,Nc1nccc[nH+:5]1,O,0,0,3.45,[3.45],"[""['hunt_et_al']""]"
1618,CCC[NH+:18](CCC)CCc1ccc(O)c(NC(C)=O)c1,O,0,0,10.8,[10.8],"[""['hunt_et_al']""]"
1619,CCOC(=O)[C@H](CCc1ccccc1)[NH2+:22][C@@H](C)C(=O)N1CCC[C@H]1C(=O)[O-],O,0,0,6.4,[6.4],"[""['hunt_et_al']""]"
1620,O=C(/C=C(/c1ccccc1)C(F)(F)F)[OH:12],O,0,0,2.41,[2.41],"[""['hunt_et_al']""]"
1621,O=P(NP(=O)(C(F)(F)C(F)(F)F)C(F)(F)C(F)(F)F)(C(F)(F)C(F)(F)F)C(F)(F)C(F)(F)F,C(CCl)Cl,916079-45-3,"1-[[bis(1,1,2,2,2-pentafluoroethyl)phosphorylamino]-(1,1,2,2,2-pentafluoroethyl)phosphoryl]-1,1,2,2,2-pentafluoroethane",33.5,[33.5],"[""['leito_acids']""]"
1622,BrCCCCC[NH3+:6],O,0,0,9.62,[9.62],"[""['hunt_et_al']""]"
1623,C[C@H]([C@@H](O)c1ccccc1)[NH3+:10],O,0,0,9.05,[9.05],"[""['hunt_et_al']""]"
1624,CCC(=O)SCC[NH+:8](C)C,O,0,0,8.28,[8.28],"[""['hunt_et_al']""]"
1625,CN(C)[P+](N)(N(C)C)N(C)C,C1CCOC1,-,amino-tris(dimethylamino)phosphanium,19.7,[19.7],"[""['Bases_pKa_values_MeCN_DMSO_THF_Water.pdf']""]"
1626,CN(C)CCC[NH+](C)C,O,-,3-(dimethylamino)propyl-dimethylazanium,10.6,[10.6],"[""['Bases_pKa_values_MeCN_DMSO_THF_Water.pdf']""]"
1627,CC(C)[NH2+:12]C[C@H](O)c1ccccc1Cl,O,0,0,9.43,[9.43],"[""['hunt_et_al']""]"
1628,CCC(CC)(CC)[NH3+:8],O,0,0,10.59,[10.59],"[""['hunt_et_al']""]"
1629,O=S(=O)(Cc1ccc(C(F)(F)F)cc1)C(F)(F)F,CS(=O)C,194222-97-4,1-(trifluoromethyl)-4-(trifluoromethylsulfonylmethyl)benzene,11.95,[11.95],"[""['Ejoc202001649-sup-00001-misc_information.pdf']""]"
1630,Clc1cccc([OH:7])c1Cl,O,0,0,7.7,[7.7],"[""['hunt_et_al']""]"
1631,Brc1cccc([OH:7])c1,O,0,0,8.87,[8.87],"[""['hunt_et_al']""]"
1632,O=C(/C=C/c1cccc(Cl)c1)[OH:11],O,0,0,4.29,[4.29],"[""['hunt_et_al']""]"
1633,CC(C)(C)c1cc(C(C)(C)C)cc([OH:15])c1,O,0,0,10.29,[10.29],"[""['hunt_et_al']""]"
1634,COc1ccccc1N1CCN(CCCCNC(=O)c2ccc(-c3cscn3)cc2)CC1,CC#N,1580000-17-4,"N-[4-[4-(2-methoxyphenyl)piperazin-1-yl]butyl]-4-(1,3-thiazol-4-yl)benzamide",24.03,[24.03],"[""['Ejoc202001649-sup-00001-misc_information.pdf']""]"
1635,N#CC1c2ccccc2-c2ccccc21,CS(=O)C,1529-40-4,9H-fluorene-9-carbonitrile,8.3,"[8.3, 8.3]","[""['a_unified_view_to_bronsted_acidity_scales.pdf', 'Ejoc202001649-sup-00001-misc_information.pdf']""]"
1636,CCCC[NH3+],CC#N,-,butylazanium,18.26,[18.26],"[""['Bases_pKa_values_MeCN_DMSO_THF_Water.pdf']""]"
1637,O=C(C(F)F)[OH:4],O,0,0,1.33,[1.33],"[""['hunt_et_al']""]"
1638,Fc1c(F)c(F)c(C2c3ccccc3-c3ccccc32)c(F)c1F,CS(=O)C,73482-93-6,"9-(2,3,4,5,6-pentafluorophenyl)-9H-fluorene",14.8,[14.8],"[""['Ejoc202001649-sup-00001-misc_information.pdf']""]"
1639,C[N@H+:23](Cc1ccccc1)CC(c1ccccc1)c1ccccc1,O,0,0,7.5,[7.5],"[""['hunt_et_al']""]"
1640,c1ccc(CSc2[nH]c3ccccc3[nH+:15]2)cc1,O,0,0,4.2,[4.2],"[""['hunt_et_al']""]"
1641,Cc1cc(O)cc(O)c1C(c1ccccc1)=[NH2+:15],O,0,0,6.75,[6.75],"[""['hunt_et_al']""]"
1642,COc1ccc(S(=O)(=O)[N-]C(=O)N2CCC([NH+:26]3CCC(Oc4ccc(Cl)c(Cl)c4)CC3)CC2)cc1,O,0,0,8.3,[8.3],"[""['hunt_et_al']""]"
1643,O=[N+]([O-])c1cc([N+](=O)[O-])c(Nc2c([N+](=O)[O-])cc([N+](=O)[O-])cc2[N+](=O)[O-])c([N+](=O)[O-])c1,CN(C)C=O,131-73-7,"2,4,6-trinitro-N-(2,4,6-trinitrophenyl)aniline",1.28,[1.28],"[""['Ejoc202001649-sup-00001-misc_information.pdf']""]"
1644,O=C(Cn1c(=O)sc2cccc(Cl)c21)[OH:13],O,0,0,3.04,[3.04],"[""['hunt_et_al']""]"
1645,CSc1ccc([NH3+:8])c([N+](=O)[O-])c1,O,0,0,-0.28,[-0.28],"[""['hunt_et_al']""]"
1646,c1cc2c3c(ccc([NH3+:13])c3c1)CC2,O,0,0,4.58,[4.58],"[""['hunt_et_al']""]"
1647,O=C(c1ncc(-c2ccccc2)o1)[OH:14],O,0,0,1.78,[1.78],"[""['hunt_et_al']""]"
1648,C[N@H+:18]1CCO[C@@H](c2ccccc2)c2ccccc2C1,O,0,0,8.9,"[8.5, 9.3]","[""['hunt_et_al']"", ""['hunt_et_al']""]"
1649,CC(=O)C[SH:5],O,0,0,7.86,[7.86],"[""['hunt_et_al']""]"
1650,O=C(c1cccc([N+](=O)[O-])c1[N+](=O)[O-])[OH:15],O,0,0,1.85,[1.85],"[""['hunt_et_al']""]"
1651,C[NH+:11](C)c1cccc(C#N)c1,O,0,0,2.969,[2.969],"[""['hunt_et_al']""]"
1652,NCC[NH3+],CS(=O)C,-,2-aminoethylazanium,11.1,[11.1],"[""['Bases_pKa_values_MeCN_DMSO_THF_Water.pdf']""]"
1653,CC(C)[NH2+:12]CCc1ccc(O)cc1,O,0,0,9.49,[9.49],"[""['hunt_et_al']""]"
1654,CCOC(=O)c1ccccc1[NH3+:10],O,0,0,2.18,[2.18],"[""['hunt_et_al']""]"
1655,Fc1c(F)c(F)c(Nc2c(F)c(F)c(F)c(F)c2F)c(F)c1F,CC#N,1535-92-8,"2,3,4,5,6-pentafluoro-N-(2,3,4,5,6-pentafluorophenyl)aniline",23.98,[23.98],"[""['Ejoc202001649-sup-00001-misc_information.pdf']""]"
1656,O=C(c1c(Cl)cccc1CO)[OH:10],O,0,0,2.26,[2.26],"[""['hunt_et_al']""]"
1657,OCC[NH+:12](CCO)Cc1cccc(F)c1,O,0,0,6.5,[6.5],"[""['hunt_et_al']""]"
1658,c1ccc(-c2ccc([NH3+:13])cc2)cc1,O,0,0,4.27,[4.27],"[""['hunt_et_al']""]"
1659,C[NH+:9](C)c1cccc(Cl)c1,O,0,0,3.87,[3.87],"[""['hunt_et_al']""]"
1660,O=C(COc1ccccc1)[OH:10],O,0,0,3.17,[3.17],"[""['hunt_et_al']""]"
1661,CCc1[nH]cc[nH+:6]1,O,0,0,7.8,[7.8],"[""['hunt_et_al']""]"
1662,Ic1ccccc1[NH3+:7],O,0,0,2.6,[2.6],"[""['hunt_et_al']""]"
1663,CC(C)CCC[C@H](C)[NH3+:9],O,0,0,10.28,[10.28],"[""['hunt_et_al']""]"
1664,Oc1c(Br)cc(Br)cc1Br,O,118-79-6,"2,4,6-tribromophenol",6.1,[6.1],"[""['Ejoc202001649-sup-00001-misc_information.pdf']""]"
1665,O=C(c1ncccn1)[OH:9],O,0,0,2.85,[2.85],"[""['hunt_et_al']""]"
1666,C[NH+:21](C)CCC=C1c2ccccc2CCc2ccccc21,O,0,0,9.4,[9.4],"[""['hunt_et_al']""]"
1667,COC(=O)c1ccc(CNS(C)(=O)=O)cc1S(=O)(=O)[NH:21]C(=O)Nc1nc(OC)cc(OC)n1,O,0,0,4.35,[4.35],"[""['hunt_et_al']""]"
1668,CCCC[C@@H](c1ccc(F)cc1)[NH3+:12],O,0,0,9.15,[9.15],"[""['hunt_et_al']""]"
1669,CCC(CC)NC(=O)c1c(C)nn(-c2ccccc2)c1[NH:26]S(=O)(=O)c1ccc(C)cc1,O,0,0,4.2,[4.2],"[""['hunt_et_al']""]"
1670,CCOC(=O)C(C#N)c1c(F)c(F)cc(F)c1F,CS(=O)C,55852-22-7,"ethyl 2-cyano-2-(2,3,5,6-tetrafluorophenyl)acetate",4.9,[4.9],"[""['Ejoc202001649-sup-00001-misc_information.pdf']""]"
1671,Oc1c(C(F)(F)F)c(C(F)(F)F)c(C(F)(F)F)c(C(F)(F)F)c1C(F)(F)F,CS(=O)C,723294-91-5,"2,3,4,5,6-pentakis(trifluoromethyl)phenol",3.1,[3.1],"[""['Ejoc202001649-sup-00001-misc_information.pdf']""]"
1672,COc1ccc(CC(=O)[OH:12])cc1OC,O,0,0,4.33,[4.33],"[""['hunt_et_al']""]"
1673,C1C[NH+]2CCN1CC2,O,49623-77-0,4-aza-1-azoniabicyclo[2.2.2]octane,8.82,[8.82],"[""['Bases_pKa_values_MeCN_DMSO_THF_Water.pdf']""]"
1674,Cc1ccc(S(=O)(=O)NS(=O)(=NS(=O)(=O)C(F)(F)F)c2ccc(Cl)cc2)cc1,C(CCl)Cl,174788-93-3,N-(4-chloro-N-((trifluoromethyl)sulfonyl)phenylsulfonimidoyl)-4-methylbenzenesulfonamide,38.0,"[38.0, 38.0]","[""['Ejoc202001649-sup-00001-misc_information.pdf', 'leito_acids']""]"
1675,Cc1cc(N)[nH+:18]c(CCNC(=O)c2ccc(C#N)cc2)c1,O,0,0,7.1,[7.1],"[""['hunt_et_al']""]"
1676,CC[NH+:23](CC)CC#CCOC(=O)[C@](O)(c1ccccc1)C1CCCCC1,O,0,0,7.5,[7.5],"[""['hunt_et_al']""]"
1677,Cc1ccccc1[C@@H](O)C[NH2+:13]C(C)C,O,0,0,9.01,[9.01],"[""['hunt_et_al']""]"
1678,C#CCC[NH3+:5],O,0,0,8.25,[8.25],"[""['hunt_et_al']""]"
1679,Brc1cccc(Br)c1[NH3+:7],O,0,0,0.35,[0.35],"[""['hunt_et_al']""]"
1680,O=[N+]([O-])c1ccc([NH3+:8])cc1C(F)(F)F,O,0,0,-0.05,[-0.05],"[""['hunt_et_al']""]"
1681,CC(=O)CCC[NH+:8](C)C,O,0,0,9.1,[9.1],"[""['hunt_et_al']""]"
1682,C1NCC2C[NH2+]CC1C2,CC#N,,,21.56,[21.56],"[""['Bases_pKa_values_MeCN_DMSO_THF_Water.pdf']""]"
1683,COC(=O)c1ccccc1CS(=O)(=O)[NH:20]C(=O)Nc1nc(OC)cc(OC)n1,O,0,0,5.2,[5.2],"[""['hunt_et_al']""]"
1684,Cc1ccc(S(=O)(=O)[NH:24]c2c(C(=O)N[C@@H](C)C(C)(C)C)c(C)nn2C(C)C)cc1,O,0,0,4.5,[4.5],"[""['hunt_et_al']""]"
1685,COc1ccccc1[C@@H](O)C[NH2+:13]C(C)C,O,0,0,9.69,[9.69],"[""['hunt_et_al']""]"
1686,O=C(CCI)[OH:5],O,0,0,4.09,[4.09],"[""['hunt_et_al']""]"
1687,CC(C=CC1=C(C)CCCC1(C)C)=CC=CC(C)=CC(=O)O,CC#N,302-79-4,"3,7-dimethyl-9-(2,6,6-trimethylcyclohexen-1-yl)nona-2,4,6,8-tetraenoic acid",22.776666666666667,"[22.78, 22.78, 22.77]","[""['pKa_values_of_acids_in_acetonitrile.pdf', 'Ejoc202001649-sup-00001-misc_information.pdf', 'leito_acids']""]"
1688,CCOc1nc(NC)nc(NC(=O)[NH:21]S(=O)(=O)c2ccccc2C(=O)OC)n1,O,0,0,4.2,[4.2],"[""['hunt_et_al']""]"
1689,Clc1cccc[nH+]1,CC#N,,2-chloropyridin-1-ium,6.79,[6.79],"[""['pKa_values_of_nitrogen_heterocycles.pdf']""]"
1690,C(=C/c1nn[nH:13]n1)\c1ccccc1,O,0,0,4.5,[4.5],"[""['hunt_et_al']""]"
1691,c1ccc2[nH+]c(-c3cscn3)[nH]c2c1,CC#N,,"4-(1H-benzimidazol-3-ium-2-yl)-1,3-thiazole",12.42,[12.42],"[""['pKa_values_of_nitrogen_heterocycles.pdf']""]"
1692,Cc1ccc([NH3+:9])cc1C,O,0,0,5.17,[5.17],"[""['hunt_et_al']""]"
1693,Cc1cc(Cl)ccc1OCCCC(=O)[OH:13],O,0,0,4.5,[4.5],"[""['hunt_et_al']""]"
1694,O=[N+]([O-])c1ccc([OH:10])c(Cl)c1,O,0,0,5.6,[5.6],"[""['hunt_et_al']""]"
1695,Cc1cc(C)c([NH2+:11]C)c(C)c1,O,0,0,5.47,[5.47],"[""['hunt_et_al']""]"
1696,NS(=O)(=O)c1ccc(Cl)c(Cl)c1,CC#N,23815-28-3,"3,4-dichlorobenzenesulfonamide",23.29,[23.29],"[""['MeCN_Acids_COSMO-RS_2008_Table.pdf']""]"
1697,O=C([O-])[C@@H](Cc1ccccc1)[NH3+:10],O,0,0,8.9,[8.9],"[""['hunt_et_al']""]"
1698,O=C(O)c1cc(Cl)cc(Cl)c1,CC#N,51-36-5,"3,5-dichlorobenzoic acid",18.7,[18.7],"[""['MeCN_Acids_COSMO-RS_2008_Table.pdf']""]"
1699,CC(=O)c1ccc([SH:10])cc1,O,0,0,5.33,[5.33],"[""['hunt_et_al']""]"
1700,Oc1c(F)c(F)c(F)c(F)c1F,CS(=O)C,771-61-9,"2,3,4,5,6-pentafluorophenol",8.9,[8.9],"[""['Ejoc202001649-sup-00001-misc_information.pdf']""]"