,Solute SMILES,Solvent SMILES,Solute CAS,Solute IUPAC,pKa (avg),pKa (all),Source (all)
3235,c1ccc([NH2+:16][C@H]2CCc3ccccc32)cc1,O,0,0,1.8,[1.8],"[""['hunt_et_al']""]"
3236,Oc1ccc([C@@H](O)C[NH3+:9])cc1,O,0,0,9.53,[9.53],"[""['hunt_et_al']""]"
3237,CC[C@](C)([C@H]([NH3+])C(=O)[O-])[SH:10],O,0,0,8.1,[8.1],"[""['hunt_et_al']""]"
3238,CC[NH+:19](CC)CCOC(=O)C1(c2ccccc2)CCCC1,O,0,0,8.4,[8.4],"[""['hunt_et_al']""]"
3239,Cc1cc(Br)ccc1C(=O)[OH:10],O,0,0,3.77,[3.77],"[""['hunt_et_al']""]"
3240,c1cc([OH:7])ccn1,O,0,0,11.12,[11.12],"[""['hunt_et_al']""]"
3241,CC[NH+:7]1CCCC1,O,0,0,10.43,[10.43],"[""['hunt_et_al']""]"
3242,C[C@@H]1CCCC(C)(C)[N@H+:10]1C,O,0,0,10.7,[10.7],"[""['hunt_et_al']""]"
3243,CC(C)(CN)C[NH3+:6],O,0,0,10.22,[10.22],"[""['hunt_et_al']""]"
3244,Brc1ccc([NH3+:7])c(Br)c1,O,0,0,2.3,[2.3],"[""['hunt_et_al']""]"
3245,O=C(c1ccc(Oc2ccccc2)cc1)[OH:15],O,0,0,4.52,[4.52],"[""['hunt_et_al']""]"
3246,CC(C)[NH2+:14]C[C@H](O)c1cccc(C#N)c1,O,0,0,9.33,[9.33],"[""['hunt_et_al']""]"
3247,CC(=O)O,CS(=O)C,64-19-7,acetic acid,12.45,"[12.6, 12.3]","[""['pKa_values_of_acids_and_bases_in_MeCN_DCE_DMSO_H2O_THF_C7_DME.pdf', 'Ejoc202001649-sup-00001-misc_information.pdf']""]"
3248,Cc1ccccc1O,CC#N,95-48-7,2-methylphenol,27.5,[27.5],"[""['MeCN_Acids_COSMO-RS_2008_Table.pdf']""]"
3249,O=S(=O)(NS(=O)(=NS(=O)(=O)C(F)(F)F)c1ccc(Cl)cc1)c1ccc(Cl)cc1,CC#N,174788-95-5,-,4.015000000000001,"[4.0, 4.03]","[""['Ejoc202001649-sup-00001-misc_information.pdf', 'leito_acids']""]"
3250,O=S(=O)(O)C(F)(F)F,CS(=O)C,1493-13-6,trifluoromethanesulfonic acid,-14.3,[-14.3],"[""['pKa_values_of_acids_and_bases_in_MeCN_DCE_DMSO_H2O_THF_C7_DME.pdf']""]"
3251,O=C(O)c1ccccc1,CN(C)C=O,65-85-0,benzoic acid,12.3,[12.3],"[""['Ejoc202001649-sup-00001-misc_information.pdf']""]"
3252,O=C([O-])c1cccc([SH:10])c1,O,0,0,6.2,[6.2],"[""['hunt_et_al']""]"
3253,N#CC(C#N)c1c(C(F)(F)F)c(C(F)(F)F)c(C(F)(F)F)c(C(F)(F)F)c1C(F)(F)F,C(CCl)Cl,1018330-44-3,"2-[2,3,4,5,6-pentakis(trifluoromethyl)phenyl]propanedinitrile",42.2,[42.2],"[""['leito_acids']""]"
3254,CC[C@H](c1cccc(Br)c1)[NH3+:10],O,0,0,8.9,[8.9],"[""['hunt_et_al']""]"
3255,N#CC(c1ccc([N+](=O)[O-])cc1)c1ccc([N+](=O)[O-])cc1,CC#N,-,"2,2-bis(4-nitrophenyl)acetonitrile",19.0,[19.0],"[""['MeCN_Acids_COSMO-RS_2008_Table.pdf']""]"
3256,c1ccc(Sc2ccc([NH3+:13])cc2)cc1,O,0,0,3.8,[3.8],"[""['hunt_et_al']""]"
3257,C=CC[NH+:10](C[C@@H](C)O)C[C@@H](C)O,O,0,0,8.2,[8.2],"[""['hunt_et_al']""]"
3258,Oc1c(F)c(F)cc(F)c1F,O,769-39-1,"2,3,5,6-tetrafluorophenol",5.67,[5.67],"[""['Ejoc202001649-sup-00001-misc_information.pdf']""]"
3259,CN(C)CCCC[NH+](C)C,O,-,4-(dimethylamino)butyl-dimethylazanium,10.8,[10.8],"[""['Bases_pKa_values_MeCN_DMSO_THF_Water.pdf']""]"
3260,Oc1cc(Cl)cc(Cl)c1,CC#N,591-35-5,"3,5-dichlorophenol",23.3,[23.3],"[""['MeCN_Acids_COSMO-RS_2008_Table.pdf']""]"
3261,CC(C)[NH3+:4],O,0,0,10.63,[10.63],"[""['hunt_et_al']""]"
3262,CCn1cc(C(=O)[OH:22])c(=O)c2cc(F)c(N3CCNCC3)cc21,O,0,0,6.3,[6.3],"[""['hunt_et_al']""]"
3263,CCS(=O)(=O)c1cccnc1S(=O)(=O)[NH:19]C(=O)Nc1nc(OC)cc(OC)n1,O,0,0,4.0,[4.0],"[""['hunt_et_al']""]"
3264,C=C1CC[N@H+:9](C)[C@@H](C)C1,O,0,0,9.25,[9.25],"[""['hunt_et_al']""]"
3265,O=C([C@H](O)c1cccc(I)c1)[OH:10],O,0,0,3.26,[3.26],"[""['hunt_et_al']""]"
3266,COC(=O)C1c2ccccc2-c2ccccc21,CC#N,3002-30-0,methyl 9H-fluorene-9-carboxylate,23.534,"[23.53, 23.53, 23.54, 23.54, 23.53]","[""['MeCN_Acids_COSMO-RS_2008_Table.pdf', 'a_unified_view_to_bronsted_acidity_scales.pdf', 'pKa_values_of_acids_in_acetonitrile.pdf', 'Ejoc202001649-sup-00001-misc_information.pdf', 'leito_acids']""]"
3267,Cc1ccc([N+](=O)[O-])c([NH3+:8])c1,O,0,0,-0.09,[-0.09],"[""['hunt_et_al']""]"
3268,O=C(NCC12CC3CC(CC(C3)C1)C2)c1ccnc(N2CC[NH2+:23]CC2)c1Cl,O,0,0,8.7,[8.7],"[""['hunt_et_al']""]"
3269,Oc1c(F)c(F)c(-c2c(F)c(F)c(F)c(F)c2F)c(F)c1F,CC#N,2894-87-3,"2,3,5,6-tetrafluoro-4-(2,3,4,5,6-pentafluorophenyl)phenol",18.105,"[18.11, 18.1, 18.1, 18.11]","[""['MeCN_Acids_COSMO-RS_2008_Table.pdf', 'pKa_values_of_acids_in_acetonitrile.pdf', 'Ejoc202001649-sup-00001-misc_information.pdf', 'leito_acids']""]"
3270,CC[N@H+:11]1CCCC(=O)[C@H](O)CCC1,O,0,0,9.2,[9.2],"[""['hunt_et_al']""]"
3271,CC(=O)OCC[NH3+:5],O,0,0,9.1,[9.1],"[""['hunt_et_al']""]"
3272,CC(C)[NH2+:10]c1ccccc1,O,0,0,5.77,[5.77],"[""['hunt_et_al']""]"
3273,COc1cc(Cl)cc([NH3+:8])c1,O,0,0,3.1,[3.1],"[""['hunt_et_al']""]"
3274,Fc1c(F)c(F)c([OH:7])c(F)c1F,O,0,0,5.6,[5.6],"[""['hunt_et_al']""]"
3275,C[N+](C)(C)c1cccc([OH:11])c1,O,0,0,8.06,[8.06],"[""['hunt_et_al']""]"
3276,CC(=O)Nc1c(F)c(F)c(F)c(F)c1F,CS(=O)C,653-22-5,"N-(2,3,4,5,6-pentafluorophenyl)acetamide",14.3,[14.3],"[""['Ejoc202001649-sup-00001-misc_information.pdf']""]"
3277,C/C(=N\NC(=O)Nc1cc(F)cc(F)c1)c1ncccc1C(=O)[OH:22],O,0,0,3.18,[3.18],"[""['hunt_et_al']""]"
3278,CC(=O)N1CC[NH2+:7]CC1,O,0,0,7.9,[7.9],"[""['hunt_et_al']""]"
3279,C/C=C(\C)[NH+:10]1CCCCC1,O,0,0,8.35,[8.35],"[""['hunt_et_al']""]"
3280,Fc1cccc(C[NH3+:8])c1,O,0,0,9.04,[9.04],"[""['hunt_et_al']""]"
3281,c1ccc(-c2ccccc2[OH:13])cc1,O,0,0,10.01,[10.01],"[""['hunt_et_al']""]"
3282,C[N+](C)(C)CCc1cccc([OH:13])c1,O,0,0,9.43,[9.43],"[""['hunt_et_al']""]"
3283,CCC[C@@H](c1ccc(C)cc1)[NH3+:12],O,0,0,9.62,[9.62],"[""['hunt_et_al']""]"
3284,Oc1ccc([OH:11])c2ccccc12,O,0,0,9.58,[9.58],"[""['hunt_et_al']""]"
3285,CSc1ccc([C@@H](O)C[NH2+:13]C(C)C)cc1,O,0,0,9.06,[9.06],"[""['hunt_et_al']""]"
3286,C1=C[C@H](C[NH3+:6])SC1,O,0,0,8.92,[8.92],"[""['hunt_et_al']""]"
3287,CCCc1nc(C(C)(C)O)c(C(=O)OCc2oc(=O)oc2C)n1Cc1ccc(-c2ccccc2-c2nnn[nH:34]2)cc1,O,0,0,4.29,[4.29],"[""['hunt_et_al']""]"
3288,C[NH+:4]1CC1,O,0,0,7.9,[7.9],"[""['hunt_et_al']""]"
3289,c1ccc(CC(Cc2ccccc2)[NH3+:16])cc1,O,0,0,8.0,[8.0],"[""['hunt_et_al']""]"
3290,O=S(=O)(NS(=O)(=O)C(F)(F)C(F)(F)C(F)(F)F)C(F)(F)C(F)(F)C(F)(F)F,C(CCl)Cl,152894-12-7,"1,1,2,2,3,3,3-heptafluoro-N-(1,1,2,2,3,3,3-heptafluoropropylsulfonyl)propane-1-sulfonamide",32.7,[32.7],"[""['leito_acids']""]"
3291,CC[C@@H]1CCC[NH2+:7]1,O,0,0,10.43,[10.43],"[""['hunt_et_al']""]"
3292,CC(C)[NH2+:12]C[C@H](O)c1ccccc1F,O,0,0,9.41,[9.41],"[""['hunt_et_al']""]"
3293,C[NH2+:10]C[C@H](O)c1ccc(O)c(O)c1,O,0,0,8.71,[8.71],"[""['hunt_et_al']""]"
3294,[NH3+]c1cccc2ccccc12,CC#N,70450-98-5,naphthalen-1-ylazanium,9.77,[9.77],"[""['pKa_values_of_nitrogen_heterocycles.pdf']""]"
3295,COc1ccc2cccc([NH3+:12])c2c1,O,0,0,4.07,[4.07],"[""['hunt_et_al']""]"
3296,O=C(Cc1ccccc1)[OH:10],O,0,0,4.31,[4.31],"[""['hunt_et_al']""]"
3297,NCC[SH:4],O,0,0,8.3,[8.3],"[""['hunt_et_al']""]"
3298,c1ccc2c(c1)CCC[C@H]2C1=[NH+:14]CCN1,O,0,0,10.6,[10.6],"[""['hunt_et_al']""]"
3299,O=C(NC[C@@H](O)C[NH+]1CCC(Oc2ccc(Cl)c(Cl)c2)CC1)c1c[nH:22]c(=O)cc1C(F)(F)F,O,0,0,8.3,[8.3],"[""['hunt_et_al']""]"
3300,COc1c(N2C[C@@H]3CCC[NH2+][C@@H]3C2)c(F)cc2c(=O)c(C(=O)[OH:27])cn(C3CC3)c12,O,0,0,6.31,[6.31],"[""['hunt_et_al']""]"
3301,c1ccc(C[NH+:12]2CCCC2)nc1,O,0,0,8.56,[8.56],"[""['hunt_et_al']""]"
3302,O=[N+]([O-])c1ccc(O)cc1[N+](=O)[O-],CC#N,577-71-9,"3,4-dinitrophenol",17.9,[17.9],"[""['MeCN_Acids_COSMO-RS_2008_Table.pdf']""]"
3303,CN(C)[P+](Nc1ccccc1)(N(C)C)N(C)C,CS(=O)C,-,anilino-tris(dimethylamino)phosphanium,11.1,[11.1],"[""['Bases_pKa_values_MeCN_DMSO_THF_Water.pdf']""]"
3304,Cc1n(C[C@H]2CCc3c(c4ccccc4n3C)C2=O)cc[nH+:19]1,O,0,0,7.73,[7.73],"[""['hunt_et_al']""]"
3305,Oc1ccccc1-c1ccccc1[OH:13],O,0,0,7.56,[7.56],"[""['hunt_et_al']""]"
3306,COc1ccc(-c2cc3ccccc3c3c2OP(=O)(NS(=O)(=O)C(F)(F)F)Oc2c(-c4ccc(OC)cc4)cc4ccccc4c2-3)cc1,CC#N,1486486-92-3,-,6.375,"[6.35, 6.4]","[""['Ejoc202001649-sup-00001-misc_information.pdf', 'leito_acids']""]"
3307,C[NH+:22]1CCN(C2=c3ccccc3=[NH+]c3ccc(Cl)cc3N2)CC1,O,0,0,3.9,[3.9],"[""['hunt_et_al']""]"
3308,C[NH+:9]1[C@H]2CC[C@@H]1CC(O)C2,O,0,0,10.06,[10.06],"[""['hunt_et_al']""]"
3309,O=C(O)c1ccc(Cl)c([N+](=O)[O-])c1,CC#N,96-99-1,4-chloro-3-nitrobenzoic acid,18.5,[18.5],"[""['MeCN_Acids_COSMO-RS_2008_Table.pdf']""]"
3310,Cc1cc(Cl)ccc1[OH:8],O,0,0,9.71,[9.71],"[""['hunt_et_al']""]"
3311,O=C(Cc1ccc([N+](=O)[O-])cc1[N+](=O)[O-])[OH:16],O,0,0,3.502,[3.502],"[""['hunt_et_al']""]"