,Solute SMILES,Solvent SMILES,Solute CAS,Solute IUPAC,pKa (avg),pKa (all),Source (all)
2721,c1ccc([NH2+]c2ccccc2)cc1,CS(=O)C,61236-17-7,diphenylazanium,-1.1,[-1.1],"['[""[\'Bases_pKa_values_MeCN_DMSO_THF_Water.pdf\']""]']"
2722,CCCCS,O,0,0,10.66,[10.66],"['[""[\'hunt_et_al\']""]']"
2723,O=Cc1ccncc1O,O,0,0,6.77,[6.77],"['[""[\'hunt_et_al\']""]']"
2724,Oc1c(Cl)cc(Br)cc1Cl,O,0,0,6.21,[6.21],"['[""[\'hunt_et_al\']""]']"
2725,C[NH2+]CCO,O,0,0,9.88,[9.88],"['[""[\'hunt_et_al\']""]']"
2726,C[N+](C)(C)CCc1cccc(O)c1,O,0,0,9.43,[9.43],"['[""[\'hunt_et_al\']""]']"
2727,CCS,O,0,0,10.61,[10.61],"['[""[\'hunt_et_al\']""]']"
2728,Oc1ccc2cncnc2c1,O,0,0,7.39,[7.39],"['[""[\'hunt_et_al\']""]']"
2729,Cc1nn(C2CCOCC2)c(NS(=O)(=O)c2ccc(C3CC3)cc2)c1C(=O)N[C@@H](C)C(C)(C)C,O,0,0,5.0,[5.0],"['[""[\'hunt_et_al\']""]']"
2730,NS(=O)(=O)c1ccccc1,O,98-10-2,benzenesulfonamide,10.1,[10.1],"['[""[\'Ejoc202001649-sup-00001-misc_information.pdf\']""]']"
2731,O=C([O-])[C@H](c1ccccc1)[NH+]1CCC(N2CCC(Oc3ccc(Cl)c(Cl)c3)CC2)CC1,O,0,0,9.1,[9.1],"['[""[\'hunt_et_al\']""]']"
2732,O=C(O)COc1cccc([N+](=O)[O-])c1,O,0,0,2.95,[2.95],"['[""[\'hunt_et_al\']""]']"
2733,COc1cccc(N)[nH+]1,O,0,0,4.64,[4.64],"['[""[\'hunt_et_al\']""]']"
2734,CCCC[NH+](CCCC)CCCC,C1CCOC1,-,tributylazanium,12.7,[12.7],"['[""[\'Bases_pKa_values_MeCN_DMSO_THF_Water.pdf\']""]']"
2735,O=[N+]([O-])c1ccc([NH2+][C@H]2CCc3ccccc32)cc1,O,0,0,-1.13,[-1.13],"['[""[\'hunt_et_al\']""]']"
2736,CCCSc1ccc2[nH+]c(NC(=O)OC)[nH]c2c1,O,0,0,5.88,"[5.88, 5.88]","['[""[\'hunt_et_al\']""]', '[""[\'hunt_et_al\']""]']"
2737,O=C(NCC12CC3CC(CC(C3)C1)C2)c1cc(OCCC[NH2+]CCCO)ccc1Cl,O,0,0,9.5,[9.5],"['[""[\'hunt_et_al\']""]']"
2738,N#CC(C#N)c1c(F)c(F)c(C(F)(F)F)c(F)c1F,CS(=O)C,55852-24-9,"2-[2,3,5,6-tetrafluoro-4-(trifluoromethyl)phenyl]propanedinitrile",1.7,[1.7],"['[""[\'a_unified_view_to_bronsted_acidity_scales.pdf\']""]']"
2739,O=C(O)CCc1ccccc1[N+](=O)[O-],O,0,0,4.504,[4.504],"['[""[\'hunt_et_al\']""]']"
2740,O=C(NS(=O)(=O)C(F)(F)F)c1ccc(Cl)cc1,CC#N,39062-99-2,4-chloro-N-(trifluoromethylsulfonyl)benzamide,10.36,[10.36],"['[""[\'leito_acids\']""]']"
2741,C[NH+](C)CCc1ccc(O)cc1,O,0,0,9.78,[9.78],"['[""[\'hunt_et_al\']""]']"
2742,CCOP(=O)(OCC)c1ccc(C(=O)O)cc1,O,0,0,3.6,[3.6],"['[""[\'hunt_et_al\']""]']"
2743,Cc1cnc2c(C(=O)O)c(Cl)ccc2c1,O,0,0,3.96,[3.96],"['[""[\'hunt_et_al\']""]']"
2744,O=C(O)c1ncc(-c2ccccc2)o1,O,0,0,1.78,[1.78],"['[""[\'hunt_et_al\']""]']"
2745,O=C(O)/C=C/c1cccc(O)c1,O,0,0,4.396,[4.396],"['[""[\'hunt_et_al\']""]']"
2746,CC[NH3+],C1CCOC1,16999-99-8,ethylazanium,13.5,[13.5],"['[""[\'Bases_pKa_values_MeCN_DMSO_THF_Water.pdf\']""]']"
2747,Cc1ccccc1[C@@H](O)C[NH2+]C(C)C,O,0,0,9.01,[9.01],"['[""[\'hunt_et_al\']""]']"
2748,CC(C)(C)c1ccc(CC(=O)O)cc1,O,0,0,4.42,[4.42],"['[""[\'hunt_et_al\']""]']"
2749,c1ccc(CSc2nc3ccccc3[nH]2)[nH+]c1,O,0,0,4.4,[4.4],"['[""[\'hunt_et_al\']""]']"
2750,N#CC(C#N)c1c(C(F)(F)F)c(C(F)(F)F)c(C(F)(F)F)c(C(F)(F)F)c1C(F)(F)F,CC#N,1018330-44-3,"2-[2,3,4,5,6-pentakis(trifluoromethyl)phenyl]propanedinitrile",8.86,"[8.86, 8.86, 8.86, 8.86]","['[""[\'DCE_2011_pKa_Table_MeCN.pdf\', \'a_unified_view_to_bronsted_acidity_scales.pdf\', \'leito_acids\']"", ""[\'MeCN_Acids_COSMO-RS_2008_Table.pdf\']""]']"
2751,Cc1cc(Br)c([NH3+])c(Br)c1,O,0,0,0.69,[0.69],"['[""[\'hunt_et_al\']""]']"
2752,Nc1cccc2cccc([NH3+])c12,C1CCOC1,-,(8-aminonaphthalen-1-yl)azanium,5.4,[5.4],"['[""[\'Bases_pKa_values_MeCN_DMSO_THF_Water.pdf\']""]']"
2753,[NH3+]c1ccc([N+](=O)[O-])c2ccccc12,O,0,0,0.54,[0.54],"['[""[\'hunt_et_al\']""]']"
2754,CC[NH+](CC)CC,C1CCOC1,17440-81-2,triethylazanium,12.5,"[12.5, 12.5]","['[""[\'pKa_values_of_acids_and_bases_in_MeCN_DCE_DMSO_H2O_THF_C7_DME.pdf\', \'Bases_pKa_values_MeCN_DMSO_THF_Water.pdf\']""]']"
2755,Oc1ccc([C@@H](O)C[NH2+]c2ccccc2)cc1O,O,0,0,8.85,[8.85],"['[""[\'hunt_et_al\']""]']"
2756,O=[N+]([O-])c1ccc(-c2cnc(O)nc2)cc1,O,0,0,8.17,[8.17],"['[""[\'hunt_et_al\']""]']"
2757,Oc1ccncc1,O,0,0,11.12,[11.12],"['[""[\'hunt_et_al\']""]']"
2758,C1=C(C2CCCCC2)[NH2+]CC1,O,0,0,7.91,[7.91],"['[""[\'hunt_et_al\']""]']"
2759,O=C(NCC12CC3CC(CC(C3)C1)C2)c1cc(CN2CC[NH2+]CC2)ccc1Cl,O,0,0,8.85,[8.85],"['[""[\'hunt_et_al\']""]']"
2760,CCCCc1ccc([C@@H](O)C(=O)O)cc1,O,0,0,3.58,[3.58],"['[""[\'hunt_et_al\']""]']"
2761,O=C(O)c1c(O)cccc1O,O,0,0,1.1,[1.1],"['[""[\'hunt_et_al\']""]']"
2762,N#CC(c1c(F)c(F)nc(F)c1F)c1c(F)c(F)nc(F)c1F,C(CCl)Cl,64934-72-1,"2,2-bis(2,3,5,6-tetrafluoropyridin-4-yl)acetonitrile",47.3,[47.3],"['[""[\'leito_acids\']""]']"
2763,COc1ccccc1C[NH3+],O,0,0,9.7,[9.7],"['[""[\'hunt_et_al\']""]']"
2764,N#Cc1cccc([NH3+])c1,O,0,0,2.748,[2.748],"['[""[\'hunt_et_al\']""]']"
2765,Oc1c(Cl)c(Cl)c(Cl)c(Cl)c1Cl,CS(=O)C,87-86-5,"2,3,4,5,6-pentachlorophenol",7.18,[7.18],"['[""[\'Ejoc202001649-sup-00001-misc_information.pdf\']""]']"
2766,O=C(O)CCCc1ccc(N(CCCl)CCCl)cc1,O,0,0,5.8,[5.8],"['[""[\'hunt_et_al\']""]']"
2767,C[N+](C)(C)c1cccc(O)c1,O,0,0,8.06,[8.06],"['[""[\'hunt_et_al\']""]']"
2768,Cc1cc[nH+]c(N)c1N,O,0,0,7.2,[7.2],"['[""[\'hunt_et_al\']""]']"
2769,CC(=O)NCCS,O,0,0,9.92,[9.92],"['[""[\'hunt_et_al\']""]']"
2770,C[NH+](C)c1ccc(C(F)(F)F)cc1,O,0,0,2.67,[2.67],"['[""[\'hunt_et_al\']""]']"
2771,CSc1ccc([NH3+])cc1,O,0,0,4.35,[4.35],"['[""[\'hunt_et_al\']""]']"
2772,COc1ccc(CC[NH+]2CCC(Nc3nc4ccccc4n3Cc3ccc(F)cc3)CC2)cc1,O,0,0,9.62,[9.62],"['[""[\'hunt_et_al\']""]']"
2773,CC(C)Oc1ccc(C(=O)O)cc1,O,0,0,4.68,[4.68],"['[""[\'hunt_et_al\']""]']"
2774,c1cc(C[NH+]2CCCC2)ccn1,O,0,0,8.16,[8.16],"['[""[\'hunt_et_al\']""]']"
2775,CC(C)c1c(Br)cc(Br)c(=O)c(O)c1Br,O,0,0,6.0,[6.0],"['[""[\'hunt_et_al\']""]']"
2776,c1ccc2nc(-c3ccc4ccccc4[nH+]3)ccc2c1,CC#N,,,11.28,"[11.28, 11.28]","['[""[\'pKa_values_of_nitrogen_heterocycles.pdf\', \'Bases_pKa_values_MeCN_DMSO_THF_Water.pdf\']""]']"
2777,c1ccc(C[NH2+]C(CC2CCCCC2)CC2CCCCC2)cc1,O,0,0,7.7,[7.7],"['[""[\'hunt_et_al\']""]']"
2778,O=S(=O)(O)CCS,O,0,0,9.2,[9.2],"['[""[\'hunt_et_al\']""]']"
2779,C[C@H]([NH3+])c1ccc(Br)cc1,O,0,0,8.95,[8.95],"['[""[\'hunt_et_al\']""]']"
2780,C=CC(C)(C)[NH2+]C(C)(C)C=C,O,0,0,10.1,[10.1],"['[""[\'hunt_et_al\']""]']"
2781,CC(C)[NH2+]C[C@H](O)c1ccc(C(F)(F)F)cc1,O,0,0,9.34,[9.34],"['[""[\'hunt_et_al\']""]']"
2782,O=C(O)c1ccc(C(=O)O)cc1,CC#N,100-21-0,terephthalic acid,19.7,[19.7],"['[""[\'MeCN_Acids_COSMO-RS_2008_Table.pdf\']""]']"
2783,CC(C)[NH2+]CC(=O)c1ccc(O)cc1,O,0,0,7.53,[7.53],"['[""[\'hunt_et_al\']""]']"
2784,CC(=O)OO,O,0,0,8.2,[8.2],"['[""[\'hunt_et_al\']""]']"
2785,OCC(F)(F)F,O,0,0,12.8,[12.8],"['[""[\'hunt_et_al\']""]']"
2786,CCNP(=N[P+](N(C)C)(N(C)C)N(C)C)(N(C)C)N(C)C,CS(=O)C,-,[[bis(dimethylamino)-(ethylamino)-_5-phosphanylidene]amino]-tris(dimethylamino)phosphanium,21.15,[21.15],"['[""[\'Bases_pKa_values_MeCN_DMSO_THF_Water.pdf\']""]']"
2787,COc1cccc(CCC(=O)O)c1,O,0,0,4.65,[4.65],"['[""[\'hunt_et_al\']""]']"
2788,Cc1ccc(OP(=O)(O)Oc2ccc(C)cc2)cc1,O,0,0,0.4,[0.4],"['[""[\'hunt_et_al\']""]']"
2789,c1ccc2n[nH+]ccc2c1,O,,cinnolin-2-ium,2.29,[2.29],"['[""[\'pKa_values_of_nitrogen_heterocycles.pdf\']""]']"
2790,O=C([O-])CCCC(=O)O,O,0,0,5.41,[5.41],"['[""[\'hunt_et_al\']""]']"
2791,O=C(O)CCc1ccc(Cl)cc1,O,0,0,4.61,[4.61],"['[""[\'hunt_et_al\']""]']"
2792,[NH3+]c1ccc(Br)c([N+](=O)[O-])c1,O,0,0,1.8,[1.8],"['[""[\'hunt_et_al\']""]']"
2793,c1cc[nH+]cc1,C1CCOC1,16969-45-2,pyridin-1-ium,5.5,[5.5],"['[""[\'Bases_pKa_values_MeCN_DMSO_THF_Water.pdf\']""]']"
2794,C[C@@H]1CCCC(C)(C)[N@H+]1C,O,0,0,10.7,[10.7],"['[""[\'hunt_et_al\']""]']"
2795,O=C(O)CSCCc1ccccc1,O,0,0,3.79,[3.79],"['[""[\'hunt_et_al\']""]']"
2796,CC[C@H]1C[N@@H+]2CC[C@H]1C[C@H]2[C@H](O)c1cc[nH+]c2ccc(OC)cc12,O,0,0,4.1,[4.1],"['[""[\'hunt_et_al\']""]']"
2797,COC(=O)c1nc2c(N[C@H](C)CO)nc(SCc3cccc(F)c3F)nc2[nH]c1=O,O,0,0,6.6,[6.6],"['[""[\'hunt_et_al\']""]']"
2798,Cc1c([NH3+])ccc([N+](=O)[O-])c1C,O,0,0,1.96,[1.96],"['[""[\'hunt_et_al\']""]']"
2799,COc1cc(C[NH3+])ccc1O,O,0,0,8.94,[8.94],"['[""[\'hunt_et_al\']""]']"
2800,C[NH+](C)Cc1ccc(F)cc1,O,0,0,8.94,[8.94],"['[""[\'hunt_et_al\']""]']"
2801,C/C(=N\O)C(C)(C)CCC[NH3+],O,0,0,9.14,[9.14],"['[""[\'hunt_et_al\']""]']"
2802,C[C@H](Oc1ccc(Cl)cc1Cl)C(=O)O,O,0,0,3.1,[3.1],"['[""[\'hunt_et_al\']""]']"
2803,CCC[NH+]1CCCCC1,O,0,0,10.5,[10.5],"['[""[\'hunt_et_al\']""]']"
2804,CCOC(=O)C(C#N)c1c(F)c(F)c(F)c(F)c1F,O,2340-87-6,"ethyl 2-cyano-2-(2,3,4,5,6-pentafluorophenyl)acetate",5.89,[5.89],"['[""[\'Ejoc202001649-sup-00001-misc_information.pdf\']""]']"
2805,Cc1cc([NH3+])c2ccccc2c1,O,0,0,3.96,[3.96],"['[""[\'hunt_et_al\']""]']"
2806,CN(C)CCC[NH+](C)C,CC#N,-,3-(dimethylamino)propyl-dimethylazanium,19.28,[19.28],"['[""[\'Bases_pKa_values_MeCN_DMSO_THF_Water.pdf\']""]']"
2807,[NH3+]CCCO,O,0,0,9.96,[9.96],"['[""[\'hunt_et_al\']""]']"
2808,O=C(O)c1cccc([N+](=O)[O-])c1O,O,0,0,1.87,[1.87],"['[""[\'hunt_et_al\']""]']"
2809,CCCCCNc1nccc[nH+]1,O,0,0,4.03,[4.03],"['[""[\'hunt_et_al\']""]']"
2810,C[NH2+]CC[C@@H](Oc1cc(OC)ccc1C#N)c1ccccc1,O,0,0,10.2,[10.2],"['[""[\'hunt_et_al\']""]']"
2811,O=C(O)c1c(Br)cccc1[N+](=O)[O-],O,0,0,1.37,[1.37],"['[""[\'hunt_et_al\']""]']"
2812,C[C@H]([NH3+])C(=O)[O-],O,0,0,10.0,[10.0],"['[""[\'hunt_et_al\']""]']"
2813,CC[C@@H]1C[N@H+]1CC,O,0,0,8.18,[8.18],"['[""[\'hunt_et_al\']""]']"
2814,O=C(O)[C@H](c1ccccc1)N1CCC(CN2CCC(Oc3ccc(Cl)c(Cl)c3)CC2)CC1,O,0,0,3.0,[3.0],"['[""[\'hunt_et_al\']""]']"
2815,CCc1ccc(O)c2sc(C)c(C)c12,O,0,0,9.56,[9.56],"['[""[\'hunt_et_al\']""]']"
2816,C[Si](C)(C)[NH2+][Si](C)(C)C,O,0,0,7.55,[7.55],"['[""[\'hunt_et_al\']""]']"
2817,CC(C)(C)CO,O,0,0,16.04,[16.04],"['[""[\'hunt_et_al\']""]']"
2818,O=C(O)CC(=O)O,CC#N,141-82-2,propanedioic acid,15.3,[15.3],"['[""[\'MeCN_Acids_COSMO-RS_2008_Table.pdf\']""]']"
2819,CC(=C(C#N)C#N)C(C#N)C#N,C(CCl)Cl,24943-63-3,"2-methylprop-1-ene-1,1,3,3-tetracarbonitrile",36.4,[36.4],"['[""[\'leito_acids\']""]']"
2820,COc1cccc[nH+]1,CC#N,,2-methoxypyridin-1-ium,9.93,[9.93],"['[""[\'pKa_values_of_nitrogen_heterocycles.pdf\']""]']"
2821,Oc1ccc(Br)cc1Br,O,0,0,7.84,[7.84],"['[""[\'hunt_et_al\']""]']"
2822,C[NH+](C)CCCN1c2ccccc2Sc2ccc(Cl)cc21,O,0,0,9.24,[9.24],"['[""[\'hunt_et_al\']""]']"
2823,C1CCN2C[C@@H]3C[C@@H](C[N@H+]4CCCC[C@H]34)[C@@H]2C1,O,0,0,12.0,[12.0],"['[""[\'hunt_et_al\']""]']"
2824,CCC[NH2+]CCC,CS(=O)C,-,dipropylazanium,10.3,[10.3],"['[""[\'Bases_pKa_values_MeCN_DMSO_THF_Water.pdf\']""]']"
2825,N#CC(C#N)=C(c1cccc(C(F)(F)F)c1)C(C#N)C#N,C(CCl)Cl,2226486-85-5,,34.3,[34.3],"['[""[\'leito_acids\']""]']"
2826,Cc1ccc(CC(=O)O)cc1,O,0,0,4.37,[4.37],"['[""[\'hunt_et_al\']""]']"
2827,CC[NH+](C)C,CS(=O)C,-,ethyl(dimethyl)azanium,8.5,[8.5],"['[""[\'Bases_pKa_values_MeCN_DMSO_THF_Water.pdf\']""]']"
2828,Cc1ccc(S(=O)(=O)Nc2ccccc2)cc1,O,0,0,8.46,[8.46],"['[""[\'hunt_et_al\']""]']"
2829,Cc1ccc(C(=[NH2+])c2ccccc2)c(C)c1,O,0,0,6.79,[6.79],"['[""[\'hunt_et_al\']""]']"
2830,CN(C)P(=N[P+](N=P(N(C)C)(N(C)C)N(C)C)(N=P(N(C)C)(N(C)C)N(C)C)NC(C)(C)C)(N(C)C)N(C)C,C1CCOC1,-,(tert-butylamino)-tris[[tris(dimethylamino)-_5-phosphanylidene]amino]phosphanium,33.9,[33.9],"['[""[\'Bases_pKa_values_MeCN_DMSO_THF_Water.pdf\']""]']"
2831,Cc1c(F)c(F)c([C@@H](C#N)c2c(F)c(F)c(F)c(F)c2F)c(F)c1F,C(CCl)Cl,52345-34-3,"(R)-2-(perfluorophenyl)-2-(2,3,5,6-tetrafluoro-4-methylphenyl)acetonitrile",56.7,[56.7],"['[""[\'Ejoc202001649-sup-00001-misc_information.pdf\']""]']"
2832,CC(=O)N[C@H](C(=O)[O-])C(C)(C)S,O,0,0,9.9,[9.9],"['[""[\'hunt_et_al\']""]']"
2833,[NH3+]c1ccc(F)c([N+](=O)[O-])c1,CC#N,,(4-fluoro-3-nitrophenyl)azanium,7.67,[7.67],"['[""[\'pKa_values_of_nitrogen_heterocycles.pdf\']""]']"
2834,COc1ccc2cc([C@H](C)C(=O)O)ccc2c1,O,0,0,4.2,[4.2],"['[""[\'hunt_et_al\']""]']"
2835,CCC[NH+](CCC)CCC,O,0,0,10.455,"[10.26, 10.65]","['[""[\'hunt_et_al\']""]', '[""[\'Bases_pKa_values_MeCN_DMSO_THF_Water.pdf\']""]']"
2836,C[C@H](Cc1ccccc1)[NH2+]CCC#N,O,0,0,7.23,[7.23],"['[""[\'hunt_et_al\']""]']"
2837,Cc1ccc(C[NH3+])cc1,O,0,0,9.36,[9.36],"['[""[\'hunt_et_al\']""]']"
2838,[NH3+]c1cc(Br)ccc1[N+](=O)[O-],O,0,0,-1.48,[-1.48],"['[""[\'hunt_et_al\']""]']"
2839,O=C(O)c1cc([N+](=O)[O-])cc([N+](=O)[O-])c1O,O,0,0,0.7,[0.7],"['[""[\'hunt_et_al\']""]']"
2840,COc1cc(OC)nc(NC(=O)NS(=O)(=O)c2ncccc2C(=O)N(C)C)n1,O,0,0,4.6,[4.6],"['[""[\'hunt_et_al\']""]']"
2841,C[NH2+]c1ccccc1,C1CCOC1,-,methyl(phenyl)azanium,4.8,[4.8],"['[""[\'Bases_pKa_values_MeCN_DMSO_THF_Water.pdf\']""]']"
2842,O=[N+]([O-])c1cc2c(c([N+](=O)[O-])c1)Nc1ccccc1O2,CC#N,26103-32-2,"1,3-dinitro-10H-phenoxazine",22.4,[22.4],"['[""[\'MeCN_Acids_COSMO-RS_2008_Table.pdf\']""]']"
2843,COc1ccc(S(=O)(=O)NC(=O)N2CCC([NH+]3CCC(Oc4ccc(Cl)c(Cl)c4)CC3)CC2)cc1,O,0,0,5.95,"[3.6, 8.3]","['[""[\'hunt_et_al\']""]', '[""[\'hunt_et_al\']""]']"
2844,C1C[NH+]2CCN1CC2,CC#N,49623-77-0,4-aza-1-azoniabicyclo[2.2.2]octane,18.29,[18.29],"['[""[\'Bases_pKa_values_MeCN_DMSO_THF_Water.pdf\']""]']"
2845,COC(=O)[C@](C)(CC(=O)O)c1ccc([N+](=O)[O-])cc1,O,0,0,4.07,[4.07],"['[""[\'hunt_et_al\']""]']"
2846,Cc1cc(-c2ccc(Cl)c(C(=O)NCC3(O)CCCCCC3)c2)nn1C[C@H](O)C[NH3+],O,0,0,8.6,[8.6],"['[""[\'hunt_et_al\']""]']"
2847,CN(C)c1cccc2cccc([NH+](C)C)c12,CS(=O)C,-,[8-(dimethylamino)naphthalen-1-yl]-dimethylazanium,7.47,[7.47],"['[""[\'Bases_pKa_values_MeCN_DMSO_THF_Water.pdf\']""]']"
2848,CC[C@H]1C[NH2+]1,O,0,0,8.31,[8.31],"['[""[\'hunt_et_al\']""]']"
2849,Oc1ccc(Br)cc1,CC#N,106-41-2,4-bromophenol,25.53,[25.53],"['[""[\'MeCN_Acids_COSMO-RS_2008_Table.pdf\']""]']"
2850,O=C(O)C(O)(O)C(O)(O)C(=O)O,CC#N,76-30-2,"2,2,3,3-tetrahydroxybutanedioic acid",13.7,[13.7],"['[""[\'MeCN_Acids_COSMO-RS_2008_Table.pdf\']""]']"
2851,CC(=O)O,CN(C)C=O,64-19-7,acetic acid,13.5,[13.5],"['[""[\'Ejoc202001649-sup-00001-misc_information.pdf\']""]']"
2852,CCC(=O)C(CC[NH+]1CCOCC1)(c1ccccc1)c1ccccc1,O,0,0,6.95,[6.95],"['[""[\'hunt_et_al\']""]']"
2853,Cc1c(F)c(F)c(C(C#N)C#N)c(F)c1F,CC#N,64934-71-0,"2-(2,3,5,6-tetrafluoro-4-methylphenyl)propanedinitrile",14.61,"[17.57, 13.87, 13.87, 13.87, 13.87]","['[""[\'pKa_values_of_acids_in_acetonitrile.pdf\', \'pKa_values_of_acids_in_acetonitrile.pdf\', \'leito_acids\']"", ""[\'MeCN_Acids_COSMO-RS_2008_Table.pdf\', \'Ejoc202001649-sup-00001-misc_information.pdf\']""]']"
2854,Oc1cccc(C(F)(F)F)c1,O,0,0,9.015,"[8.95, 9.08]","['[""[\'hunt_et_al\']""]', '[""[\'Ejoc202001649-sup-00001-misc_information.pdf\']""]']"
2855,O=C(Nc1ccc(Cl)cc1)Nc1ccc(Cl)c(Cl)c1,CC#N,101-20-2,"1-(4-chlorophenyl)-3-(3,4-dichlorophenyl)urea",27.95,[27.95],"['[""[\'Ejoc202001649-sup-00001-misc_information.pdf\']""]']"
2856,Cc1[nH]c(=[NH2+])sc1C,O,0,0,6.3,[6.3],"['[""[\'hunt_et_al\']""]']"
2857,C[NH2+]CC(=O)O,O,0,0,6.265,"[10.18, 2.35]","['[""[\'hunt_et_al\']""]', '[""[\'hunt_et_al\']""]']"
2858,O=C(O)/C=C/c1ccccc1[N+](=O)[O-],O,0,0,4.15,[4.15],"['[""[\'hunt_et_al\']""]']"
2859,COc1ccc([NH3+])cc1Br,O,0,0,4.08,[4.08],"['[""[\'hunt_et_al\']""]']"
2860,O=C(Nc1ccc(Cl)c(S(=O)(=O)N2CC[NH2+]CC2)c1[O-])Nc1cccc(F)c1Cl,O,0,0,8.5,[8.5],"['[""[\'hunt_et_al\']""]']"
2861,CC(=O)OCC[NH3+],O,0,0,9.1,[9.1],"['[""[\'hunt_et_al\']""]']"
2862,NS(=O)(=O)c1ccccc1C[NH3+],O,0,0,8.53,[8.53],"['[""[\'hunt_et_al\']""]']"
2863,O=C(O)c1ccccc1O,CC#N,69-72-7,2-hydroxybenzoic acid,16.7,[16.7],"['[""[\'MeCN_Acids_COSMO-RS_2008_Table.pdf\']""]']"
2864,CC[C@@](CC(=O)OC)(Cc1ccc([N+](=O)[O-])cc1)C(=O)O,O,0,0,3.7,[3.7],"['[""[\'hunt_et_al\']""]']"
2865,C=C(c1ccccc1)c1ccc([NH3+])cc1,O,0,0,4.18,[4.18],"['[""[\'hunt_et_al\']""]']"
2866,C[NH2+]Cc1ccc(OC)cc1,O,0,0,9.97,[9.97],"['[""[\'hunt_et_al\']""]']"
2867,CSc1ccc([NH3+])cc1[N+](=O)[O-],O,0,0,2.47,[2.47],"['[""[\'hunt_et_al\']""]']"
2868,CC(C)(C#N)[NH+]1CCCCC1,O,0,0,9.22,[9.22],"['[""[\'hunt_et_al\']""]']"
2869,c1ccc2c[nH+]ccc2c1,CC#N,-,isoquinolin-2-ium,12.684999999999999,"[12.69, 12.68]","['[""[\'pKa_values_of_nitrogen_heterocycles.pdf\', \'Bases_pKa_values_MeCN_DMSO_THF_Water.pdf\']""]']"
2870,CCOC(=O)C(C#N)c1c(F)c(F)c(Cl)c(F)c1F,CS(=O)C,55810-56-5,"ethyl 2-(4-chloro-2,3,5,6-tetrafluorophenyl)-2-cyanoacetate",4.5,[4.5],"['[""[\'a_unified_view_to_bronsted_acidity_scales.pdf\']""]']"
2871,[NH3+]c1ccc(SC(F)(F)C(F)F)cc1,O,0,0,2.87,[2.87],"['[""[\'hunt_et_al\']""]']"
2872,CC[C@H](C)C(=O)O[C@H]1C[C@H](O)C=C2C=C[C@H](C)[C@H](CC[C@@H](O)C[C@@H](O)CC(=O)O)[C@H]21,O,0,0,4.7,[4.7],"['[""[\'hunt_et_al\']""]']"
2873,Oc1ccc2ccccc2c1,O,0,0,9.57,[9.57],"['[""[\'hunt_et_al\']""]']"
2874,CCOCC(=O)O,O,0,0,3.84,[3.84],"['[""[\'hunt_et_al\']""]']"
2875,CC(=O)CCC[NH+](C)C,O,0,0,9.1,[9.1],"['[""[\'hunt_et_al\']""]']"
2876,COc1ccc(S)cc1,O,0,0,6.77,[6.77],"['[""[\'hunt_et_al\']""]']"
2877,CC[NH+](CC)CCNC(=O)c1ccc(NS(C)(=O)=O)cc1,O,0,0,8.434999999999999,"[7.52, 9.35]","['[""[\'hunt_et_al\']""]', '[""[\'hunt_et_al\']""]']"
2878,CC(C)[C@H]([NH3+])c1ccccc1,O,0,0,9.85,[9.85],"['[""[\'hunt_et_al\']""]']"
2879,CCC(CC)C[N@@H+](CC[N+]1(C)CCCCC1)c1ccccc1,O,0,0,3.79,[3.79],"['[""[\'hunt_et_al\']""]']"
2880,Cc1c(F)c(F)c(O)c(F)c1F,CC#N,1644-90-2,"2,3,5,6-tetrafluoro-4-methylphenol",20.3,[20.3],"['[""[\'MeCN_Acids_COSMO-RS_2008_Table.pdf\']""]']"
2881,O=[N+]([O-])c1ccc([NH2+]Cc2cccc(Br)c2)c([N+](=O)[O-])c1,O,0,0,-5.49,[-5.49],"['[""[\'hunt_et_al\']""]']"
2882,O=C(O)c1cc([N+](=O)[O-])ccc1Cl,O,0,0,2.17,[2.17],"['[""[\'hunt_et_al\']""]']"
2883,CN(C)c1ccc(S(=O)(=O)NC(=O)N2CCC(N3CCC(Oc4ccc(Cl)c(Cl)c4)CC3)CC2)cc1,O,0,0,6.1,[6.1],"['[""[\'hunt_et_al\']""]']"
2884,O=C([C@H]1CCCC[NH2+]1)N1CCN(c2nc(NCc3ccc(Cl)cc3Cl)c3cccnc3n2)CC1,O,0,0,9.0,[9.0],"['[""[\'hunt_et_al\']""]']"
2885,COc1ccc2ccc([NH3+])cc2c1,O,0,0,4.19,[4.19],"['[""[\'hunt_et_al\']""]']"
2886,O=C(O)CCC(=O)O,O,0,0,4.21,[4.21],"['[""[\'hunt_et_al\']""]']"
2887,NS(=O)(=O)c1ccccc1,CC#N,98-10-2,benzenesulfonamide,25.619999999999997,"[24.61, 26.63]","['[""[\'MeCN_Acids_COSMO-RS_2008_Table.pdf\', \'Ejoc202001649-sup-00001-misc_information.pdf\']""]']"
2888,O=C(O)[C@@H](Br)CBr,O,0,0,2.33,[2.33],"['[""[\'hunt_et_al\']""]']"
2889,COC(=O)CCC(C(=O)O)(c1ccccc1)c1ccccc1,O,0,0,4.0,[4.0],"['[""[\'hunt_et_al\']""]']"
2890,[NH3+]c1cc2c3c(cccc3c1)CC2,O,0,0,4.5,[4.5],"['[""[\'hunt_et_al\']""]']"
2891,[NH3+]c1ccc(-c2ccccc2)cc1,O,0,0,4.27,[4.27],"['[""[\'hunt_et_al\']""]']"
2892,CS(=O)(=O)CC(=O)O,O,0,0,2.36,[2.36],"['[""[\'hunt_et_al\']""]']"
2893,C1C[NH2+]CCN1,CC#N,8057-14-5,piperazin-1-ium,18.69,[18.69],"['[""[\'Bases_pKa_values_MeCN_DMSO_THF_Water.pdf\']""]']"
2894,[NH3+]c1ccc2ccccc2c1,O,0,0,4.16,[4.16],"['[""[\'hunt_et_al\']""]']"
2895,O=C([N-]S(=O)(=O)c1ccccc1)N1CCC([NH+]2CCC(Oc3ccc(Cl)c(Cl)c3)CC2)CC1,O,0,0,8.1,[8.1],"['[""[\'hunt_et_al\']""]']"
2896,Cc1nc2ccncc2nc1O,O,0,0,8.33,[8.33],"['[""[\'hunt_et_al\']""]']"
2897,O=[N+]([O-])c1cc(Cl)c(O)c(Cl)c1,O,0,0,3.6,[3.6],"['[""[\'hunt_et_al\']""]']"
2898,O=S(=O)(F)c1cc(S(=O)(=O)F)c(O)c(S(=O)(=O)F)c1,CC#N,882492-01-5,"2-hydroxybenzene-1,3,5-trisulfonyl fluoride",5.286666666666666,"[5.25, 5.25, 5.22, 5.25, 5.53, 5.22]","['[""[\'DCE_2011_pKa_Table_MeCN.pdf\', \'a_unified_view_to_bronsted_acidity_scales.pdf\', \'pKa_values_of_acids_in_acetonitrile.pdf\', \'leito_acids\']"", ""[\'MeCN_Acids_COSMO-RS_2008_Table.pdf\', \'Ejoc202001649-sup-00001-misc_information.pdf\']""]']"
2899,c1cc[nH+]nc1,CS(=O)C,-,pyridazin-1-ium,1.8,[1.8],"['[""[\'Bases_pKa_values_MeCN_DMSO_THF_Water.pdf\']""]']"
2900,CC[NH+](CC)CCC(=O)Cc1ccccc1,O,0,0,9.4,[9.4],"['[""[\'hunt_et_al\']""]']"
2901,O=C(O)Cc1ccc(Cl)cc1,O,0,0,4.19,[4.19],"['[""[\'hunt_et_al\']""]']"
2902,[NH3+]c1ccc(F)c(Cl)c1,O,0,0,3.66,[3.66],"['[""[\'hunt_et_al\']""]']"
2903,C[NH+](C)c1ccc([N+](=O)[O-])cc1[N+](=O)[O-],O,0,0,-1.0,[-1.0],"['[""[\'hunt_et_al\']""]']"
2904,CC(C)[NH2+]C[C@H](O)c1ccc(Br)cc1,O,0,0,9.26,[9.26],"['[""[\'hunt_et_al\']""]']"
2905,Cc1cc(O)cc(C)c1Cl,O,0,0,9.7,[9.7],"['[""[\'hunt_et_al\']""]']"
2906,[NH3+]c1c(Br)cccc1Br,O,0,0,0.35,[0.35],"['[""[\'hunt_et_al\']""]']"
2907,Cc1cc(O)nc(C)n1,O,0,0,9.82,[9.82],"['[""[\'hunt_et_al\']""]']"
2908,COCCc1ccc(OC[C@H](O)C[NH2+]C(C)C)cc1,O,0,0,9.649999999999999,"[9.6, 9.7]","['[""[\'hunt_et_al\']"", ""[\'hunt_et_al\']""]']"
2909,CC(C)(C)c1cccc([NH3+])c1,O,0,0,4.66,[4.66],"['[""[\'hunt_et_al\']""]']"
2910,CC(C)(C)Sc1ccc([NH3+])cc1,O,0,0,3.44,[3.44],"['[""[\'hunt_et_al\']""]']"
2911,O=C(c1ccccc1)N1CC[NH2+]CC1,O,0,0,7.75,[7.75],"['[""[\'hunt_et_al\']""]']"
2912,[NH3+]C[C@H]1C=CCS1,O,0,0,8.92,[8.92],"['[""[\'hunt_et_al\']""]']"
2913,CC[C@@H](C)CC(=O)O,O,0,0,4.766,[4.766],"['[""[\'hunt_et_al\']""]']"