,Solute SMILES,Solvent SMILES,Solute CAS,Solute IUPAC,pKa (avg),pKa (all),Source (all)
373,COC(=O)C1c2ccccc2-c2ccccc21,C(CCl)Cl,3002-30-0,methyl 9H-fluorene-9-carboxylate,58.1,"[58.1, 58.1]","['[""[\'Ejoc202001649-sup-00001-misc_information.pdf\', \'leito_acids\']""]']"
374,O=C(c1ccccc1)N1CC[NH+](Cc2ccccc2)CC1,O,0,0,6.2,[6.2],"['[""[\'hunt_et_al\']""]']"
375,CCSc1ccc([NH3+])cc1,O,0,0,4.0,[4.0],"['[""[\'hunt_et_al\']""]']"
376,C[N@@H+]1CCC[C@H]1c1cccnc1,O,0,0,8.1,[8.1],"['[""[\'hunt_et_al\']""]']"
377,C1CC[NH2+]CC1,C1CCOC1,17523-59-0,piperidin-1-ium,14.3,[14.3],"['[""[\'Bases_pKa_values_MeCN_DMSO_THF_Water.pdf\']""]']"
378,CCCC[NH3+],O,0,0,10.645,"[10.7, 10.59]","['[""[\'hunt_et_al\']""]', '[""[\'Bases_pKa_values_MeCN_DMSO_THF_Water.pdf\']""]']"
379,NCCCC[NH3+],CS(=O)C,-,4-aminobutylazanium,12.6,[12.6],"['[""[\'Bases_pKa_values_MeCN_DMSO_THF_Water.pdf\']""]']"
380,N#Cc1c(O)c(C#N)c(C#N)c(C#N)c1C#N,C(CCl)Cl,42448-55-5,"6-hydroxybenzene-1,2,3,4,5-pentacarbonitrile",37.5,[37.5],"['[""[\'leito_acids\']""]']"
381,CO/N=C(\C(=O)N[C@@H]1C(=O)N2C(C(=O)O)=C(COC(C)=O)CS[C@H]12)c1csc(N)n1,O,0,0,3.75,[3.75],"['[""[\'hunt_et_al\']""]']"
382,COC(=O)c1ccccc1[NH+](C)C,O,0,0,3.78,[3.78],"['[""[\'hunt_et_al\']""]']"
383,c1cc[nH+]cc1,CC#N,16969-45-2,pyridin-1-ium,12.53,"[12.53, 12.53]","['[""[\'pKa_values_of_nitrogen_heterocycles.pdf\', \'Bases_pKa_values_MeCN_DMSO_THF_Water.pdf\']""]']"
384,O=C(O)CP(=O)(c1ccccc1)c1ccccc1,O,0,0,3.62,[3.62],"['[""[\'hunt_et_al\']""]']"
385,CCOC(=O)N1CC[NH2+]CC1,O,0,0,8.2,[8.2],"['[""[\'hunt_et_al\']""]']"
386,Cc1onc(-c2c(F)cccc2Cl)c1C(=O)N[C@@H]1C(=O)N2[C@@H](C(=O)O)C(C)(C)S[C@H]12,O,0,0,2.46,[2.46],"['[""[\'hunt_et_al\']""]']"
387,Oc1c(Cl)c(Cl)cc(Cl)c1Cl,O,0,0,5.14,[5.14],"['[""[\'hunt_et_al\']""]']"
388,O=[N+]([O-])c1ccc(Nc2ccc([N+](=O)[O-])cc2)cc1,CC#N,1821-27-8,4-nitro-N-(4-nitrophenyl)aniline,26.18,[26.18],"['[""[\'Ejoc202001649-sup-00001-misc_information.pdf\']""]']"
389,N#CCC(=O)O,O,0,0,2.45,[2.45],"['[""[\'hunt_et_al\']""]']"
390,Cc1nc(C)c2cccc(O)c2n1,O,0,0,9.41,[9.41],"['[""[\'hunt_et_al\']""]']"
391,CCn1nc(C(=O)O)c(=O)c2cc3c(cc21)OCO3,O,0,0,4.36,[4.36],"['[""[\'hunt_et_al\']""]']"
392,COc1cccc(S(N)(=O)=O)c1,CC#N,58734-57-9,3-methoxybenzenesulfonamide,24.48,[24.48],"['[""[\'MeCN_Acids_COSMO-RS_2008_Table.pdf\']""]']"
393,C[C@@H]([NH3+])Cc1ccc(Cl)cc1,O,0,0,9.9,[9.9],"['[""[\'hunt_et_al\']""]']"
394,O=C(NCC12CC3CC(CC(C3)C1)C2)c1cc(-n2ncc(=O)[nH]c2=O)ccc1Cl,O,0,0,6.2,[6.2],"['[""[\'hunt_et_al\']""]']"
395,Cc1ccc([NH3+])c(C)c1,O,0,0,4.89,[4.89],"['[""[\'hunt_et_al\']""]']"
396,NS(=O)(=O)c1c(F)c(F)c(F)c(F)c1F,CC#N,778-36-9,"2,3,4,5,6-pentafluorobenzenesulfonamide",22.27,[22.27],"['[""[\'Ejoc202001649-sup-00001-misc_information.pdf\']""]']"
397,O=C(O)c1ccc(O)cc1,CC#N,99-96-7,4-hydroxybenzoic acid,20.8,[20.8],"['[""[\'MeCN_Acids_COSMO-RS_2008_Table.pdf\']""]']"
398,[NH3+]c1cccc(Cl)c1Cl,O,0,0,1.761,[1.761],"['[""[\'hunt_et_al\']""]']"
399,CSc1cccc([NH3+])c1,O,0,0,4.0,[4.0],"['[""[\'hunt_et_al\']""]']"
400,Cc1cccc(C[NH3+])c1,O,0,0,9.45,[9.45],"['[""[\'hunt_et_al\']""]']"
401,COC(=O)C[C@@H](C(=O)O)c1ccc([N+](=O)[O-])cc1,O,0,0,3.69,[3.69],"['[""[\'hunt_et_al\']""]']"
402,OCCS,O,0,0,9.72,[9.72],"['[""[\'hunt_et_al\']""]']"
403,[NH3+]c1ccc2c3c(cccc13)CC2,O,0,0,4.58,[4.58],"['[""[\'hunt_et_al\']""]']"
404,Cc1nn(-c2ccc(F)cc2)c(NS(=O)(=O)c2ccc(C(F)(F)F)cc2)c1C(=O)N[C@@H](C)C(C)(C)C,O,0,0,3.4,[3.4],"['[""[\'hunt_et_al\']""]']"
405,O=C(O)C(F)F,O,0,0,1.33,[1.33],"['[""[\'hunt_et_al\']""]']"
406,CC(C)(C)c1cccc(C(=O)O)c1,O,0,0,4.204,[4.204],"['[""[\'hunt_et_al\']""]']"
407,CC(C)(C(=O)O)C(=O)O,O,0,0,3.15,[3.15],"['[""[\'hunt_et_al\']""]']"
408,O=C(NS(=O)(=O)c1ccccc1)N1CCC([NH+]2CCC(Oc3ccc(Cl)c(Cl)c3)CC2)CC1,O,0,0,3.3,[3.3],"['[""[\'hunt_et_al\']""]']"
409,[NH3+]c1ccc([N+](=O)[O-])cc1,CC#N,,(4-nitrophenyl)azanium,6.22,[6.22],"['[""[\'pKa_values_of_nitrogen_heterocycles.pdf\']""]']"
410,Oc1ccccc1-c1ccc(Br)cc1,O,0,0,10.96,[10.96],"['[""[\'hunt_et_al\']""]']"
411,CCC[NH2+]Cc1ccccc1,O,0,0,9.6,[9.6],"['[""[\'hunt_et_al\']""]']"
412,[NH3+]Cc1cccc(Br)c1,O,0,0,8.98,[8.98],"['[""[\'hunt_et_al\']""]']"
413,CC[NH+](CC)CCNC(=O)c1ccc([N-]S(C)(=O)=O)cc1,O,0,0,9.35,[9.35],"['[""[\'hunt_et_al\']""]']"
414,O=C(O)CC(Cl)(Cl)Cl,O,0,0,0.52,[0.52],"['[""[\'hunt_et_al\']""]']"
415,Cc1cccc(C(=O)O)c1O,O,0,0,2.99,[2.99],"['[""[\'hunt_et_al\']""]']"
416,COc1ccc2c(c1)C(=O)N(CCc1ccc(S(=O)(=O)NC(=O)NC3CCCCC3)cc1)C(=O)C2(C)C,O,0,0,5.0,[5.0],"['[""[\'hunt_et_al\']""]']"
417,[NH3+]c1ccc(OC(F)(F)C(F)(F)F)cc1,O,0,0,3.78,[3.78],"['[""[\'hunt_et_al\']""]']"
418,N#CC(c1c(F)c(F)c(C(F)(F)F)c(F)c1F)c1c(F)c(F)c(C(F)(F)F)c(F)c1F,CS(=O)C,58432-55-6,"2,2-bis[2,3,5,6-tetrafluoro-4-(trifluoromethyl)phenyl]acetonitrile",3.3,[3.3],"['[""[\'Ejoc202001649-sup-00001-misc_information.pdf\']""]']"
419,c1ccc2c(c1)CC[NH2+]C2,O,0,0,9.41,[9.41],"['[""[\'hunt_et_al\']""]']"
420,CCc1ccc(O)cc1,O,0,0,10.0,[10.0],"['[""[\'hunt_et_al\']""]']"
421,CN(C)P(=N[P+](N=P(N(C)C)(N(C)C)N(C)C)(N=P(N(C)C)(N(C)C)N(C)C)NC(C)(C)C)(N(C)C)N(C)C,CC#N,-,(tert-butylamino)-tris[[tris(dimethylamino)-_5-phosphanylidene]amino]phosphanium,42.7,[42.7],"['[""[\'Bases_pKa_values_MeCN_DMSO_THF_Water.pdf\']""]']"
422,N#Cc1ccccc1[NH3+],O,0,0,0.95,[0.95],"['[""[\'hunt_et_al\']""]']"
423,Cc1cnc(C(=O)NCCc2ccc(S(=O)(=O)NC(=O)NC3CCCCC3)cc2)cn1,O,0,0,5.25,[5.25],"['[""[\'hunt_et_al\']""]']"
424,c1c[nH+][nH]n1,CS(=O)C,-,2H-triazol-1-ium,0.0,[0.0],"['[""[\'Bases_pKa_values_MeCN_DMSO_THF_Water.pdf\']""]']"
425,Oc1ccc(O)nn1,O,0,0,13.0,[13.0],"['[""[\'hunt_et_al\']""]']"
426,Br,CC#N,10035-10-6,bromane,5.471428571428571,"[5.5, 5.5, 5.5, 5.5, 5.4, 5.4, 5.5]","['[""[\'MeCN_Acids_COSMO-RS_2008_Table.pdf\', \'pKa_values_of_acids_and_bases_in_MeCN_DCE_DMSO_H2O_THF_C7_DME.pdf\', \'DCE_2011_pKa_Table_MeCN.pdf\', \'a_unified_view_to_bronsted_acidity_scales.pdf\', \'pKa_values_of_acids_in_acetonitrile.pdf\', \'Ejoc202001649-sup-00001-misc_information.pdf\', \'leito_acids\']""]']"
427,C[NH2+]c1ccccc1,CC#N,-,methyl(phenyl)azanium,10.97,[10.97],"['[""[\'Bases_pKa_values_MeCN_DMSO_THF_Water.pdf\']""]']"
428,COc1ccc(C(=C(C#N)C#N)C(C#N)C#N)cc1,C(CCl)Cl,1261286-76-3,,36.1,[36.1],"['[""[\'leito_acids\']""]']"
429,N#CC(C#N)S(=O)(=O)c1cccc([N+](=O)[O-])c1,CC#N,46764-49-2,-,6.1899999999999995,"[6.16, 6.22]","['[""[\'Ejoc202001649-sup-00001-misc_information.pdf\', \'leito_acids\']""]']"
430,CSc1cc(O)ncn1,O,0,0,8.52,[8.52],"['[""[\'hunt_et_al\']""]']"
431,O=C(O)c1cc(Cl)cc(Cl)c1,O,0,0,3.54,[3.54],"['[""[\'hunt_et_al\']""]']"
432,CN(C)c1ccccc1S(=O)(=O)NC(=O)N1CCC(N2CCC(Oc3ccc(Cl)c(Cl)c3)CC2)CC1,O,0,0,6.6,[6.6],"['[""[\'hunt_et_al\']""]']"
433,C=CC(C)(C)[NH2+]C(C)(C)CC,O,0,0,10.8,[10.8],"['[""[\'hunt_et_al\']""]']"
434,O=c1[n-]c(=O)c(S)c[nH]1,O,0,0,5.3,[5.3],"['[""[\'hunt_et_al\']""]']"
435,Fc1c(F)c(F)c2c(c1F)Cc1c(F)c(F)c(F)c(F)c1-2,CS(=O)C,27053-34-5,"1,2,3,4,5,6,7,8-octafluoro-9H-fluorene",10.8,[10.8],"['[""[\'Ejoc202001649-sup-00001-misc_information.pdf\']""]']"
436,CCOC(=O)N1CCC(Nc2cc(Cl)cc[nH+]2)CC1,O,0,0,5.3,[5.3],"['[""[\'hunt_et_al\']""]']"
437,Cc1ccccc1/C=C/c1ccc([NH+](C)C)cc1,O,0,0,4.67,[4.67],"['[""[\'hunt_et_al\']""]']"
438,Cc1ccccc1C[NH+](CCO)CCO,O,0,0,7.1,[7.1],"['[""[\'hunt_et_al\']""]']"
439,O=C(O)c1cc([N+](=O)[O-])cc([N+](=O)[O-])c1,CC#N,99-34-3,"3,5-dinitrobenzoic acid",17.0,[17.0],"['[""[\'MeCN_Acids_COSMO-RS_2008_Table.pdf\']""]']"
440,OC(=S)CCCCC(O)=S,O,0,0,3.382,[3.382],"['[""[\'hunt_et_al\']""]']"
441,Cc1c(C(F)(F)F)c(C(F)(F)F)c(C(F)(F)F)c(C(F)(F)F)c1C(F)(F)F,CS(=O)C,1018330-43-2,"1-methyl-2,3,4,5,6-pentakis(trifluoromethyl)benzene",13.9,[13.9],"['[""[\'Ejoc202001649-sup-00001-misc_information.pdf\']""]']"
442,O=C(O)COc1ccccc1,O,0,0,3.17,[3.17],"['[""[\'hunt_et_al\']""]']"
443,Cc1cc([N+](=O)[O-])c[nH+]c1N,O,0,0,3.58,[3.58],"['[""[\'hunt_et_al\']""]']"
444,CCCC[N@H+](C)c1ccccc1,O,0,0,6.03,[6.03],"['[""[\'hunt_et_al\']""]']"
445,O=[N+]([O-])c1cccc2c1Nc1ccccc1O2,CC#N,26103-27-5,1-nitro-10H-phenoxazine,28.4,[28.4],"['[""[\'MeCN_Acids_COSMO-RS_2008_Table.pdf\']""]']"
446,OC12C(F)(F)C3(F)C(F)(F)C(F)(C1(F)F)C(F)(F)C(F)(C2(F)F)C3(F)F,CC#N,160823-57-4,"2,2,3,4,4,5,6,6,7,8,8,9,9,10,10-pentadecafluoroadamantan-1-ol",18.25,[18.25],"['[""[\'leito_acids\']""]']"
447,CS(=O)(=O)O,CC#N,75-75-2,methanesulfonic acid,9.97,"[9.97, 9.97, 9.97]","['[""[\'MeCN_Acids_COSMO-RS_2008_Table.pdf\', \'pKa_values_of_acids_in_acetonitrile.pdf\', \'Ejoc202001649-sup-00001-misc_information.pdf\']""]']"
448,CC(C)(C)N[P+](N1CCCC1)(N1CCCC1)N1CCCC1,CS(=O)C,-,(tert-butylamino)-tripyrrolidin-1-ylphosphanium,17.4,[17.4],"['[""[\'Bases_pKa_values_MeCN_DMSO_THF_Water.pdf\']""]']"
449,COc1ccccc1CCC(=O)O,O,0,0,4.804,[4.804],"['[""[\'hunt_et_al\']""]']"
450,CCC(CC)n1nc(C)c(C(=O)N[C@@H](C)C(C)(C)C)c1NS(=O)(=O)c1ccc(C)cc1,O,0,0,4.6,[4.6],"['[""[\'hunt_et_al\']""]']"
451,O=[N+]([O-])c1cccc(S(=O)(=O)O)c1,CC#N,98-47-5,3-nitrobenzenesulfonic acid,6.614999999999999,"[6.65, 6.71, 6.4, 6.7]","['[""[\'MeCN_Acids_COSMO-RS_2008_Table.pdf\', \'DCE_2011_pKa_Table_MeCN.pdf\', \'Ejoc202001649-sup-00001-misc_information.pdf\', \'leito_acids\']""]']"
452,O=c1[nH]cc(S)c(=O)[nH]1,O,0,0,5.3,[5.3],"['[""[\'hunt_et_al\']""]']"
453,Oc1ccc(C(F)(F)F)cc1,CS(=O)C,402-45-9,4-(trifluoromethyl)phenol,14.6,[14.6],"['[""[\'Ejoc202001649-sup-00001-misc_information.pdf\']""]']"
454,C[NH2+]c1ccccc1[N+](=O)[O-],O,0,0,-0.62,[-0.62],"['[""[\'hunt_et_al\']""]']"
455,C[NH2+]c1c(C)cccc1C,O,0,0,6.12,[6.12],"['[""[\'hunt_et_al\']""]']"
456,CC(=O)Oc1cccc(C(=O)O)c1,O,0,0,4.0,[4.0],"['[""[\'hunt_et_al\']""]']"
457,O=[N+]([O-])c1ccccc1O,CS(=O)C,88-75-5,2-nitrophenol,11.0,[11.0],"['[""[\'Ejoc202001649-sup-00001-misc_information.pdf\']""]']"
458,CCC1(c2ccccc2)C(=O)NC(=O)NC1=O,O,0,0,7.5,[7.5],"['[""[\'hunt_et_al\']""]']"
459,COc1cc(C(=O)O)ccc1O,O,0,0,4.355,[4.355],"['[""[\'hunt_et_al\']""]']"
460,[NH3+]C1CCCCC1,O,0,0,10.68,[10.68],"['[""[\'hunt_et_al\']""]']"
461,[NH3+][C@@H](CCC(=O)N[C@@H](CS)C(=O)NCC(=O)O)C(=O)[O-],O,0,0,8.56,[8.56],"['[""[\'hunt_et_al\']""]']"
462,CC[C@H](Cl)C(=O)O,O,0,0,2.86,[2.86],"['[""[\'hunt_et_al\']""]']"
463,Cc1cc(Cl)ccc1O,O,0,0,9.71,[9.71],"['[""[\'hunt_et_al\']""]']"
464,C1=C(Cc2ccccc2)[NH2+]CC1,O,0,0,7.06,[7.06],"['[""[\'hunt_et_al\']""]']"
465,[NH3+][C@H](Cc1ccccc1)C(=O)[O-],O,0,0,8.9,[8.9],"['[""[\'hunt_et_al\']""]']"
466,N[C@@H]1CCc2cc(O)c(O)cc2C1,O,0,0,9.1,"[9.1, 9.1]","['[""[\'hunt_et_al\']""]', '[""[\'hunt_et_al\']""]']"
467,Cc1cc(C(C)(C)C)c(O)c(C(C)(C)C)c1,O,0,0,12.23,[12.23],"['[""[\'hunt_et_al\']""]']"
468,CCC[NH3+],C1CCOC1,,propylazanium,13.8,[13.8],"['[""[\'Bases_pKa_values_MeCN_DMSO_THF_Water.pdf\']""]']"
469,O=[N+]([O-])c1ccc2c(c1)Oc1cc([N+](=O)[O-])cc([N+](=O)[O-])c1N2,CC#N,-,"1,3,7-trinitro-10H-phenoxazine",20.3,[20.3],"['[""[\'MeCN_Acids_COSMO-RS_2008_Table.pdf\']""]']"
470,CO[C@@]1(NC(=O)CSCC#N)C(=O)N2C(C(=O)O)=C(CSc3nnnn3C)CS[C@@H]21,O,0,0,3.37,[3.37],"['[""[\'hunt_et_al\']""]']"
471,CC(C)[NH2+]C[C@H](O)c1ccccc1,O,0,0,9.5,[9.5],"['[""[\'hunt_et_al\']""]']"
472,[NH3+]Cc1cccc(F)c1,O,0,0,9.04,[9.04],"['[""[\'hunt_et_al\']""]']"
473,O=C(O)[C@@H]1Cc2c([nH]c3ccccc23)[C@H](c2ccccc2)[NH2+]1,O,0,0,8.0,[8.0],"['[""[\'hunt_et_al\']""]']"
474,CCOc1cccc(C(=O)O)c1CO,O,0,0,3.62,[3.62],"['[""[\'hunt_et_al\']""]']"
475,CC(C)(CN)C[NH3+],O,0,0,10.22,[10.22],"['[""[\'hunt_et_al\']""]']"
476,[NH3+][C@@H]1CCc2cc(O)c(O)cc2C1,O,0,0,9.566666666666668,"[9.1, 10.5, 9.1]","['[""[\'hunt_et_al\']""]', '[""[\'hunt_et_al\']""]', '[""[\'hunt_et_al\']""]']"
477,CC[NH+](CC)CCCl,O,0,0,8.8,[8.8],"['[""[\'hunt_et_al\']""]']"
478,CC(C)(C)NC(=O)[C@@H]1C[C@@H]2CCCC[C@@H]2C[N@H+]1C[C@@H](O)[C@H](Cc1ccccc1)NC(=O)[C@H](CC(N)=O)NC(=O)c1ccc2ccccc2n1,O,0,0,7.14,[7.14],"['[""[\'hunt_et_al\']""]']"
479,Cc1cccc(C(=O)O)c1C(=O)O,CC#N,37102-74-2,3-methylphthalic acid,17.0,[17.0],"['[""[\'MeCN_Acids_COSMO-RS_2008_Table.pdf\']""]']"
480,O=[N+]([O-])c1cccc([N+](=O)[O-])c1O,CN(C)C=O,573-56-8,"2,6-dinitrophenol",6.18,[6.18],"['[""[\'Ejoc202001649-sup-00001-misc_information.pdf\']""]']"
481,NC1=[NH+][C@H](c2cccs2)Nc2cccc(F)c21,O,0,0,8.73,[8.73],"['[""[\'hunt_et_al\']""]']"
482,CC1=[NH+]C[C@H](C)S1,O,0,0,5.256,[5.256],"['[""[\'hunt_et_al\']""]']"
483,O=S(=O)(N=C(NS(=O)(=O)C(F)(F)F)c1ccccc1)C(F)(F)F,CC#N,500721-91-5,"N,N'-bis(trifluoromethylsulfonyl)benzenecarboximidamide",5.764,"[5.71, 5.68, 5.71, 6.04, 5.68]","['[""[\'DCE_2011_pKa_Table_MeCN.pdf\', \'pKa_values_of_acids_in_acetonitrile.pdf\', \'leito_acids\']"", ""[\'MeCN_Acids_COSMO-RS_2008_Table.pdf\', \'Ejoc202001649-sup-00001-misc_information.pdf\']""]']"
484,C[C@@H](C(=O)O)[N+](=O)[O-],O,0,0,3.79,[3.79],"['[""[\'hunt_et_al\']""]']"
485,Oc1c(C[NH+]2CCCCC2)ccc2cccnc12,O,0,0,10.9,[10.9],"['[""[\'hunt_et_al\']""]']"
486,CN(C)[P+](Nc1ccccc1)(N(C)C)N(C)C,O,-,anilino-tris(dimethylamino)phosphanium,10.64,[10.64],"['[""[\'Bases_pKa_values_MeCN_DMSO_THF_Water.pdf\']""]']"
487,[NH3+][C@H]1CCN(c2c(F)cc3c(=O)c(C(=O)O)cn(C4CC4)c3c2Cl)C1,O,0,0,5.77,[5.77],"['[""[\'hunt_et_al\']""]']"
488,Nc1cc2ccccc2c[nH+]1,O,0,0,5.03,[5.03],"['[""[\'hunt_et_al\']""]']"
489,CN(C)CCCC[NH+](C)C,CS(=O)C,-,4-(dimethylamino)butyl-dimethylazanium,10.0,[10.0],"['[""[\'Bases_pKa_values_MeCN_DMSO_THF_Water.pdf\']""]']"
490,C1CCC2=NCCC[NH+]2CC1,CS(=O)C,-,"3,4,5,6,7,8,9,10-octahydro-2H-pyrimido[1,2-a]azepin-5-ium",13.9,"[13.9, 13.9]","['[""[\'pKa_values_of_acids_and_bases_in_MeCN_DCE_DMSO_H2O_THF_C7_DME.pdf\', \'Bases_pKa_values_MeCN_DMSO_THF_Water.pdf\']""]']"
491,O=C1C[C@H](S)C(=O)[N-]1,O,0,0,6.7,[6.7],"['[""[\'hunt_et_al\']""]']"
492,O=C(O)c1nc(Cl)ccc1Cl,O,0,0,2.32,[2.32],"['[""[\'hunt_et_al\']""]']"
493,CN(C)c1cccc2cccc([NH+](C)C)c12,C1CCOC1,-,[8-(dimethylamino)naphthalen-1-yl]-dimethylazanium,11.1,[11.1],"['[""[\'Bases_pKa_values_MeCN_DMSO_THF_Water.pdf\']""]']"
494,O=C(O)C(c1ccccc1)(c1ccccc1)c1ccccc1,O,0,0,3.96,[3.96],"['[""[\'hunt_et_al\']""]']"
495,[NH3+]c1cccc(SC(F)(F)F)c1,O,0,0,3.3,[3.3],"['[""[\'hunt_et_al\']""]']"
496,Cc1cccc([NH2+][C@H]2CCc3ccccc32)c1,O,0,0,2.49,[2.49],"['[""[\'hunt_et_al\']""]']"
497,N#CC(C#N)=C(Cl)C(C#N)C#N,C(CCl)Cl,1261286-80-9,"2-chloroprop-1-ene-1,1,3,3-tetracarbonitrile",32.9,[32.9],"['[""[\'leito_acids\']""]']"
498,COc1cccc(OC)[nH+]1,CC#N,,"2,6-dimethoxypyridin-1-ium",7.64,[7.64],"['[""[\'pKa_values_of_nitrogen_heterocycles.pdf\']""]']"
499,Nc1ccc(CC(=O)O)cc1,O,0,0,3.6,[3.6],"['[""[\'hunt_et_al\']""]']"
500,Cc1c(C)c([N+](=O)[O-])c(C)c(C)c1[NH3+],O,0,0,2.36,[2.36],"['[""[\'hunt_et_al\']""]']"
501,CCC(=O)OCC[NH+](C)C,O,0,0,8.29,[8.29],"['[""[\'hunt_et_al\']""]']"
502,COC(=O)c1cc2nc([S@@](=O)Cc3[nH+]cccc3C)[nH]c2cc1C,O,0,0,3.5,[3.5],"['[""[\'hunt_et_al\']""]']"
503,[NH3+]c1ccccc1[N+](=O)[O-],CC#N,,(2-nitrophenyl)azanium,4.8,[4.8],"['[""[\'pKa_values_of_nitrogen_heterocycles.pdf\']""]']"
504,O=C(NCC12CC3CC(CC(C3)C1)C2)c1cc(OC2CC[NH2+]CC2)ncc1Cl,O,0,0,9.1,[9.1],"['[""[\'hunt_et_al\']""]']"
505,O=S(=O)(O)c1ccc(Cl)cc1,CC#N,98-66-8,4-chlorobenzenesulfonic acid,7.1425,"[7.16, 7.21, 7.0, 7.2]","['[""[\'MeCN_Acids_COSMO-RS_2008_Table.pdf\', \'DCE_2011_pKa_Table_MeCN.pdf\', \'Ejoc202001649-sup-00001-misc_information.pdf\', \'leito_acids\']""]']"
506,CCCCCCCC[N@@H+](CC[N+]1(C)CCCCC1)c1ccccc1,O,0,0,3.32,[3.32],"['[""[\'hunt_et_al\']""]']"
507,COc1ccc([NH+](C)C)cc1,O,0,0,5.854,[5.854],"['[""[\'hunt_et_al\']""]']"
508,O=C1c2ccccc2C(=O)N1O,O,0,0,6.5,[6.5],"['[""[\'hunt_et_al\']""]']"
509,SCc1ccccn1,O,0,0,8.82,[8.82],"['[""[\'hunt_et_al\']""]']"
510,Cc1ccc(C(=O)N2C[C@H]3C[NH2+]C[C@@H](C2)O3)cc1NC(=O)CC12CC3CC(CC(C3)C1)C2,O,0,0,7.18,[7.18],"['[""[\'hunt_et_al\']""]']"
511,Cc1cc(Br)ccc1C(=O)O,O,0,0,3.77,[3.77],"['[""[\'hunt_et_al\']""]']"
512,COc1cc(OC)nc(NC(=O)NS(=O)(=O)c2c(-c3nnn(C)n3)cnn2C)n1,O,0,0,3.6,[3.6],"['[""[\'hunt_et_al\']""]']"
513,CCn1cc(C(=O)O)c(=O)c2cc(F)c(N3CCNCC3)nc21,O,0,0,6.2,[6.2],"['[""[\'hunt_et_al\']""]']"
514,CC1=C(C)C(C)(C)[NH2+]C1(C)C,O,0,0,10.5,[10.5],"['[""[\'hunt_et_al\']""]']"
515,Cc1ccc([NH3+])cc1Br,O,0,0,3.98,[3.98],"['[""[\'hunt_et_al\']""]']"
516,[NH3+][C@H]1CCCC[C@@H]1Cl,O,0,0,9.49,[9.49],"['[""[\'hunt_et_al\']""]']"
517,C1CN=C2CCC[NH+]2C1,O,-,"3,4,5,6,7,8-hexahydro-2H-pyrrolo[1,2-a]pyrimidin-5-ium",13.5,[13.5],"['[""[\'Bases_pKa_values_MeCN_DMSO_THF_Water.pdf\']""]']"
518,O=C(O)c1cc(/N=N/c2ccc(Cl)cc2)ccc1O,O,0,0,2.5,[2.5],"['[""[\'hunt_et_al\']""]']"
519,[O-][Cl+3]([O-])([O-])O,O,7601-90-3,perchloric acid,-15.2,[-15.2],"['[""[\'pKa_values_of_acids_and_bases_in_MeCN_DCE_DMSO_H2O_THF_C7_DME.pdf\']""]']"
520,C[NH+](C)CCCN1c2ccccc2Sc2ccccc21,O,0,0,9.4,[9.4],"['[""[\'hunt_et_al\']""]']"
521,O=C(O)C(F)(F)Cl,O,0,0,0.46,[0.46],"['[""[\'hunt_et_al\']""]']"
522,OC(C(F)(F)F)(C(F)(F)F)C(F)(F)F,CS(=O)C,1/2/78,"1,1,1,3,3,3-hexafluoro-2-(trifluoromethyl)propan-2-ol",10.7,[10.7],"['[""[\'Ejoc202001649-sup-00001-misc_information.pdf\']""]']"
523,[NH3+]CCCCO,O,0,0,10.35,[10.35],"['[""[\'hunt_et_al\']""]']"
524,CC[C@@H]([NH3+])C(=O)OC,O,0,0,7.64,[7.64],"['[""[\'hunt_et_al\']""]']"
525,[NH3+]c1ccc(C(F)(F)F)cc1,CC#N,,(4-(trifluoromethyl)phenyl)azanium,8.03,[8.03],"['[""[\'pKa_values_of_nitrogen_heterocycles.pdf\']""]']"
526,O=[N+]([O-])c1cc2c(c([N+](=O)[O-])c1)Nc1c(cc([N+](=O)[O-])cc1[N+](=O)[O-])O2,CC#N,24050-28-0,"1,3,7,9-tetranitro-10H-phenoxazine",18.8,[18.8],"['[""[\'MeCN_Acids_COSMO-RS_2008_Table.pdf\']""]']"
527,CN1CCC[NH+]2CCCN=C12,C1CCOC1,-,"1-methyl-3,4,5,6,7,8-hexahydro-2H-pyrimido[1,2-a]pyrimidin-5-ium",18.0,[18.0],"['[""[\'Bases_pKa_values_MeCN_DMSO_THF_Water.pdf\']""]']"
528,NCCC[NH3+],CC#N,-,3-aminopropylazanium,19.76,[19.76],"['[""[\'Bases_pKa_values_MeCN_DMSO_THF_Water.pdf\']""]']"
529,O=C(O)[C@@H](Cl)CCl,O,0,0,2.85,[2.85],"['[""[\'hunt_et_al\']""]']"
530,CCOC(=O)C(C#N)c1c(F)c(F)c2c(F)c(F)c(F)c(F)c2c1F,C(CCl)Cl,62325-34-2,"ethyl 2-cyano-2-(1,3,4,5,6,7,8-heptafluoronaphthalen-2-yl)acetate",52.0,"[52.0, 52.0]","['[""[\'leito_acids\']"", ""[\'Ejoc202001649-sup-00001-misc_information.pdf\']""]']"
531,c1ccc2[nH]ccc2c1,CN(C)C=O,120-72-9,1H-indole,21.65,[21.65],"['[""[\'Ejoc202001649-sup-00001-misc_information.pdf\']""]']"
532,O=C(O)[C@@H](O)CO,O,0,0,3.52,[3.52],"['[""[\'hunt_et_al\']""]']"
533,C[S@](=O)c1cccc(C(C)(C)C)c1O,O,0,0,9.5,[9.5],"['[""[\'hunt_et_al\']""]']"
534,O=C(O)[C@H](O)CCl,O,0,0,3.12,[3.12],"['[""[\'hunt_et_al\']""]']"
535,Cc1ccc(S(=O)(=O)[N-]C(=O)N2CCC([NH+]3CCC(Oc4ccc(Cl)c(C)c4Cl)CC3)CC2)cc1,O,0,0,8.7,[8.7],"['[""[\'hunt_et_al\']""]']"
536,Cc1ccnc(O)n1,O,0,0,9.9,[9.9],"['[""[\'hunt_et_al\']""]']"
537,N#CCC(=O)O,CC#N,372-09-8,2-cyanoacetic acid,18.0,[18.0],"['[""[\'MeCN_Acids_COSMO-RS_2008_Table.pdf\']""]']"
538,CCCOc1ccccc1C(=O)O,O,0,0,4.24,[4.24],"['[""[\'hunt_et_al\']""]']"
539,[NH3+]c1cccc(I)c1,O,0,0,3.61,[3.61],"['[""[\'hunt_et_al\']""]']"
540,COC(=O)c1ccccc1S(=O)(=O)NC(=O)Nc1nc(C)cc(C)n1,O,0,0,5.2,[5.2],"['[""[\'hunt_et_al\']""]']"
541,C1CC[NH2+]CC1,CS(=O)C,17523-59-0,piperidin-1-ium,10.85,[10.85],"['[""[\'Bases_pKa_values_MeCN_DMSO_THF_Water.pdf\']""]']"
542,NS(=O)(=O)c1cccc(C[NH3+])c1,O,0,0,8.55,[8.55],"['[""[\'hunt_et_al\']""]']"
543,[NH3+]c1ccc2c(c1)CCCC2,O,0,0,5.17,[5.17],"['[""[\'hunt_et_al\']""]']"
544,C[NH2+]CC(=O)[O-],O,0,0,10.18,[10.18],"['[""[\'hunt_et_al\']""]']"
545,Oc1cccc2nnccc12,O,0,0,7.42,[7.42],"['[""[\'hunt_et_al\']""]']"
546,OCCCl,O,0,0,14.31,[14.31],"['[""[\'hunt_et_al\']""]']"
547,O=S(=O)(NS(=O)(=O)C(F)(F)F)c1ccccc1,CC#N,174788-87-5,N-(trifluoromethylsulfonyl)benzenesulfonamide,5.6275,"[5.55, 5.52, 5.55, 5.89]","['[""[\'DCE_2011_pKa_Table_MeCN.pdf\', \'Ejoc202001649-sup-00001-misc_information.pdf\', \'leito_acids\']"", ""[\'MeCN_Acids_COSMO-RS_2008_Table.pdf\']""]']"
548,[NH3+]c1ccc2c(c1)-c1ccccc1C2,O,0,0,4.82,[4.82],"['[""[\'hunt_et_al\']""]']"
549,O=C(c1ccccc1C(F)(F)F)N(O)c1ccccc1,O,0,0,7.88,[7.88],"['[""[\'hunt_et_al\']""]']"
550,O=[N+]([O-])c1cc(-c2ccccc2)ccc1O,O,0,0,6.73,[6.73],"['[""[\'hunt_et_al\']""]']"
551,Cc1cc(C)c(C)c(O)c1,O,0,0,10.7,[10.7],"['[""[\'hunt_et_al\']""]']"
552,CC(C)(O)C(F)(F)F,O,0,0,11.6,[11.6],"['[""[\'hunt_et_al\']""]']"
553,C1COCC[NH2+]1,O,0,0,8.5,[8.5],"['[""[\'hunt_et_al\']""]']"
554,CCn1cc(C(=O)O)c(=O)c2cc(F)c(N3CCN(C)CC3)cc21,O,0,0,6.28,[6.28],"['[""[\'hunt_et_al\']""]']"
555,[NH3+]CCc1c[nH]c2ccc(O)cc12,O,0,0,10.0,[10.0],"['[""[\'hunt_et_al\']""]']"
556,Cc1cc(C[N@H+]2Cc3ccccc3[C@@H]2C(=O)Nc2ccc(Cl)cc2Cl)ccc1OCC(=O)[O-],O,0,0,5.6,[5.6],"['[""[\'hunt_et_al\']""]']"