,Solute SMILES,Solvent SMILES,Solute CAS,Solute IUPAC,pKa (avg),pKa (all),Source (all)
3037,O=[N+]([O-])c1cc([N+](=O)[O-])c(S(=O)(=O)O)c([N+](=O)[O-])c1,C(CCl)Cl,2508-19-2,"2,4,6-trinitrobenzenesulfonic acid",33.6,[33.6],"[""['leito_acids']""]"
3038,Fc1c(F)c(F)c(C2c3c(F)c(F)c(F)c(F)c3-c3c(F)c(F)c(F)c(F)c32)c(F)c1F,C(CCl)Cl,63264-80-2,"1,2,3,4,5,6,7,8-octafluoro-9-(2,3,4,5,6-pentafluorophenyl)-9H-fluorene",53.79999999999999,"[53.8, 53.8, 53.8]","[""['pKa_values_of_acids_and_bases_in_MeCN_DCE_DMSO_H2O_THF_C7_DME.pdf', 'Ejoc202001649-sup-00001-misc_information.pdf', 'leito_acids']""]"
3039,COc1ccc(Cl)cc1C(=O)NCCc1ccc(S(=O)(=O)[NH:26]C(=O)NC2CCCCC2)cc1,O,0,0,3.76,[3.76],"[""['hunt_et_al']""]"
3040,COc1ccc(CCC(=O)[OH:12])cc1,O,0,0,4.69,[4.69],"[""['hunt_et_al']""]"
3041,c1cc([NH3+:11])ccc1C1CCC1,O,0,0,4.8,[4.8],"[""['hunt_et_al']""]"
3042,COc1ncc(-c2ccc([NH+:16](C)C)cc2)cn1,O,0,0,4.31,[4.31],"[""['hunt_et_al']""]"
3043,C[C@@H](C=C(c1ccccc1)c1ccccc1)[NH+:19](C)C,O,0,0,9.21,[9.21],"[""['hunt_et_al']""]"
3044,COc1cc2ccccc2cc1C(=O)[OH:14],O,0,0,3.8,[3.8],"[""['hunt_et_al']""]"
3045,O=C(Nc1cccc(F)c1Cl)Nc1ccc(Cl)c(S(=O)(=O)N2CC[NH2+]CC2)c1[OH:25],O,0,0,5.9,[5.9],"[""['hunt_et_al']""]"
3046,c1cnc2ccc([OH:11])cc2c1,O,0,0,8.9,[8.9],"[""['hunt_et_al']""]"
3047,CC(=O)N[C@@H](C[SH:10])C(=O)[O-],O,0,0,9.52,[9.52],"[""['hunt_et_al']""]"
3048,C[C@@H](c1ccc([N+](=O)[O-])cc1)[NH3+:9],O,0,0,8.5,[8.5],"[""['hunt_et_al']""]"
3049,Cc1ccc(C(C)C)c([OH:11])c1,O,0,0,10.62,[10.62],"[""['hunt_et_al']""]"
3050,O=C([O-])CCCCC(=O)[OH:9],O,0,0,5.41,[5.41],"[""['hunt_et_al']""]"
3051,Cc1nn(-c2ccc(F)cc2)c([NH:28]S(=O)(=O)c2ccc(C#N)cc2)c1C(=O)N[C@@H](C)C(C)(C)C,O,0,0,3.0,[3.0],"[""['hunt_et_al']""]"
3052,O=C(O)[C@@H]1Cc2c([nH]c3ccccc23)[C@H](c2ccccc2)[NH2+:20]1,O,0,0,8.0,[8.0],"[""['hunt_et_al']""]"
3053,Cc1cccc(C)c1[NH3+:9],O,0,0,3.95,[3.95],"[""['hunt_et_al']""]"
3054,C[C@H](CO)Nc1nc(SCc2cccc(F)c2F)nc2c1cc(C#N)c(=O)[nH:22]2,O,0,0,7.9,[7.9],"[""['hunt_et_al']""]"
3055,C[NH2+:8]c1ccccc1[N+](=O)[O-],O,0,0,-0.62,[-0.62],"[""['hunt_et_al']""]"
3056,CCC[NH+](CCC)CCC,CC#N,-,tripropylazanium,18.26,[18.26],"[""['Bases_pKa_values_MeCN_DMSO_THF_Water.pdf']""]"
3057,C[NH3+:2],O,0,0,10.66,[10.66],"[""['hunt_et_al']""]"
3058,C[N+](C)(C)c1cccc(CC(=O)[OH:14])c1,O,0,0,3.66,[3.66],"[""['hunt_et_al']""]"
3059,CCOc1c2c(c(C)c[nH+:23]1)NC(C)=C(C(N)=O)[C@H]2c1ccc(C#N)cc1OC,O,0,0,4.68,[4.68],"[""['hunt_et_al']""]"
3060,CS(=O)(=O)c1cccc(C(=O)[OH:12])c1,O,0,0,3.52,[3.52],"[""['hunt_et_al']""]"
3061,O=S(=O)(c1cc(S(=O)(=O)C(F)(F)F)c(O)c(S(=O)(=O)C(F)(F)F)c1)C(F)(F)F,O,71571-37-4,"2,4,6-tris((trifluoromethyl)sulfonyl)phenol",-2.0,[-2.0],"[""['Ejoc202001649-sup-00001-misc_information.pdf']""]"
3062,O=Cc1ccc([NH3+:8])cc1,O,0,0,1.76,[1.76],"[""['hunt_et_al']""]"
3063,COc1cccc(C(=O)NCC[NH+:22]2CCC(Oc3ccc(Cl)c(Cl)c3)CC2)c1,O,0,0,7.4,[7.4],"[""['hunt_et_al']""]"
3064,C[C@H]1CCC[C@@H](O)[C@@H]1[NH3+:8],O,0,0,9.39,[9.39],"[""['hunt_et_al']""]"
3065,Cc1cc(C)c([OH:13])c(C)c1[N+](=O)[O-],O,0,0,8.86,[8.86],"[""['hunt_et_al']""]"
3066,Clc1cccc([SH:7])c1,O,0,0,5.78,[5.78],"[""['hunt_et_al']""]"
3067,CC(C)[NH2+:12]C[C@H](O)c1ccc(O)cc1,O,0,0,9.57,[9.57],"[""['hunt_et_al']""]"
3068,COC(=O)c1cc(O)c(O)c(O)c1C[NH+:12](C)C,O,0,0,6.8,[6.8],"[""['hunt_et_al']""]"
3069,O=C([C@H]1CCCC[NH2+:28]1)N1CCN(c2nc(NCc3ccc(Cl)cc3Cl)c3cccnc3n2)CC1,O,0,0,9.0,[9.0],"[""['hunt_et_al']""]"
3070,CCC[NH+](CCC)CCc1ccc([OH:20])c2c1CC(=O)N2,O,0,0,8.35,[8.35],"[""['hunt_et_al']""]"
3071,C[C@H](C(=O)[OH:17])c1ccc(-c2ccccc2)c(F)c1,O,0,0,4.2,[4.2],"[""['hunt_et_al']""]"
3072,O=C(/C=C/c1ccccc1O)[OH:12],O,0,0,4.61,[4.61],"[""['hunt_et_al']""]"
3073,CCOC(=O)C[SH:7],O,0,0,7.95,[7.95],"[""['hunt_et_al']""]"
3074,O=C(CC(=O)[OH:7])C(Cl)Cl,O,0,0,2.11,[2.11],"[""['hunt_et_al']""]"
3075,CN(C)P(=N[P+](N=P(N(C)C)(N(C)C)N(C)C)(N=P(N(C)C)(N(C)C)N(C)C)NC(C)(C)C)(N(C)C)N(C)C,CS(=O)C,-,(tert-butylamino)-tris[[tris(dimethylamino)-_5-phosphanylidene]amino]phosphanium,30.25,[30.25],"[""['Bases_pKa_values_MeCN_DMSO_THF_Water.pdf']""]"
3076,C[C@H]1CC[NH2+:9]C(C)(C)C1,O,0,0,11.04,[11.04],"[""['hunt_et_al']""]"
3077,[NH3+]CC[SH:4],O,0,0,8.3,[8.3],"[""['hunt_et_al']""]"
3078,CC1=C(C)C(C)(C)[NH+:12](C)C1(C)C,O,0,0,10.8,[10.8],"[""['hunt_et_al']""]"
3079,c1cc([OH:7])cnn1,O,0,0,8.72,[8.72],"[""['hunt_et_al']""]"
3080,CN(C)c1ccccc1S(=O)(=O)[N-]C(=O)N1CCC([NH+:27]2CCC(Oc3ccc(Cl)c(Cl)c3)CC2)CC1,O,0,0,8.6,[8.6],"[""['hunt_et_al']""]"
3081,CCCCOc1ccc([NH3+:11])c([N+](=O)[O-])c1,O,0,0,0.74,[0.74],"[""['hunt_et_al']""]"
3082,O=C(N1CCC([NH+]2CCC(Oc3ccc(Cl)c(Cl)c3)CC2)CC1)[NH:26]S(=O)(=O)c1ccc(Cl)cc1,O,0,0,2.5,[2.5],"[""['hunt_et_al']""]"
3083,CCCCOc1ccc([C@H](C)[NH3+:13])cc1,O,0,0,9.45,[9.45],"[""['hunt_et_al']""]"
3084,Cc1ccc(S(N)(=O)=O)cc1,O,70-55-3,4-methylbenzenesulfonamide,10.21,[10.21],"[""['Ejoc202001649-sup-00001-misc_information.pdf']""]"
3085,O=[N+]([O-])c1ccc(S(=O)(=O)NS(=O)(=O)c2ccc([N+](=O)[O-])cc2)cc1,C(CCl)Cl,7/6/09,4-nitro-N-(4-nitrophenyl)sulfonylbenzenesulfonamide,41.1,"[41.1, 41.1]","[""['Ejoc202001649-sup-00001-misc_information.pdf', 'leito_acids']""]"
3086,OCCC[SH:5],O,0,0,10.19,[10.19],"[""['hunt_et_al']""]"
3087,Br,CS(=O)C,10035-10-6,bromane,-6.8,"[-6.8, -6.8]","[""['pKa_values_of_acids_and_bases_in_MeCN_DCE_DMSO_H2O_THF_C7_DME.pdf', 'Ejoc202001649-sup-00001-misc_information.pdf']""]"
3088,O=[N+]([O-])c1ccc2cc[nH]c2c1,CC#N,4769-96-4,6-nitro-1H-indole,27.79,"[27.79, 27.79]","[""['pKa_values_of_acids_in_acetonitrile.pdf', 'Ejoc202001649-sup-00001-misc_information.pdf']""]"
3089,CC(=O)O,C1CCOC1,64-19-7,acetic acid,22.48,[22.48],"[""['pKa_values_of_acids_and_bases_in_MeCN_DCE_DMSO_H2O_THF_C7_DME.pdf']""]"
3090,O=C([N-]S(=O)(=O)c1ccc(F)cc1)N1CCC([NH+:25]2CCC(Oc3ccc(Cl)c(Cl)c3)CC2)CC1,O,0,0,8.45,[8.45],"[""['hunt_et_al']""]"
3091,CCCC[NH+:7](C)C,O,0,0,10.2,[10.2],"[""['hunt_et_al']""]"
3092,C[NH2+]c1ccccc1,CS(=O)C,-,methyl(phenyl)azanium,2.94,[2.94],"[""['Bases_pKa_values_MeCN_DMSO_THF_Water.pdf']""]"
3093,O=S(=O)(O)C(F)(F)F,C1CCOC1,1493-13-6,trifluoromethanesulfonic acid,7.83,[7.83],"[""['pKa_values_of_acids_and_bases_in_MeCN_DCE_DMSO_H2O_THF_C7_DME.pdf']""]"
3094,CC(=O)C(CC[NH+:22]1CCOCC1)(c1ccccc1)c1ccccc1,O,0,0,6.83,[6.83],"[""['hunt_et_al']""]"
3095,c1ccc2[nH+]c[nH]c2c1,O,-,1H-benzimidazol-3-ium,5.56,"[5.56, 5.56]","[""['pKa_values_of_nitrogen_heterocycles.pdf', 'Bases_pKa_values_MeCN_DMSO_THF_Water.pdf']""]"
3096,CC1=NS(=O)(=O)c2cc(Cl)ccc2[NH:10]1,O,0,0,8.42,[8.42],"[""['hunt_et_al']""]"
3097,O=C(c1c(Cl)cccc1[N+](=O)[O-])[OH:12],O,0,0,1.34,[1.34],"[""['hunt_et_al']""]"
3098,CC(C)[NH2+:13]C[C@H](O)c1ccc(S(C)(=O)=O)cc1,O,0,0,9.25,[9.25],"[""['hunt_et_al']""]"
3099,COc1cccc(CCC(=O)[OH:12])c1,O,0,0,4.65,[4.65],"[""['hunt_et_al']""]"
3100,O=C(c1cc(=O)c2ccccc2[nH]1)[OH:14],O,0,0,2.5,[2.5],"[""['hunt_et_al']""]"
3101,CCC(CC)NC(=O)c1cnn(-c2ccccc2)c1[NH:23]S(=O)(=O)C1CCCC1,O,0,0,4.5,[4.5],"[""['hunt_et_al']""]"
3102,C=CCc1c(C)nc([OH:12])nc1C,O,0,0,10.74,[10.74],"[""['hunt_et_al']""]"
3103,c1ccc2c(c1)CCC[C@H]2[NH3+:11],O,0,0,9.63,[9.63],"[""['hunt_et_al']""]"
3104,Oc1ccc2[nH]cc(CC[NH3+:12])c2c1,O,0,0,10.0,[10.0],"[""['hunt_et_al']""]"
3105,O=[N+]([O-])c1cccc([NH:13]S(=O)(=O)c2ccccc2)c1,O,0,0,6.94,[6.94],"[""['hunt_et_al']""]"
3106,CC(C)[NH2+:12]C[C@H](O)c1cccc([N+](=O)[O-])c1,O,0,0,9.21,[9.21],"[""['hunt_et_al']""]"
3107,CCCCCC[N@@H+:21](CC[N+]1(C)CCCCC1)c1ccccc1,O,0,0,3.13,[3.13],"[""['hunt_et_al']""]"
3108,O=C(c1ccc([N+](=O)[O-])cc1[N+](=O)[O-])[OH:15],O,0,0,1.42,[1.42],"[""['hunt_et_al']""]"
3109,O=[N+]([O-])c1ccc(-c2cnc([OH:16])nc2)cc1,O,0,0,8.17,[8.17],"[""['hunt_et_al']""]"
3110,CCCc1c(C)nc([OH:12])nc1C,O,0,0,10.89,[10.89],"[""['hunt_et_al']""]"
3111,Clc1cc(Cl)c2cccnc2c1[OH:11],O,0,0,7.62,[7.62],"[""['hunt_et_al']""]"
3112,CN(C)c1ccc(C(=O)O)cc1,CC#N,619-84-1,4-(dimethylamino)benzoic acid,23.0,[23.0],"[""['MeCN_Acids_COSMO-RS_2008_Table.pdf']""]"
3113,CC(C)(C(F)(F)F)[OH:5],O,0,0,11.6,[11.6],"[""['hunt_et_al']""]"
3114,O=C(c1cccc(Br)c1CO)[OH:10],O,0,0,3.28,[3.28],"[""['hunt_et_al']""]"
3115,CC[C@H]1CSC(C)=[NH+:7]1,O,0,0,5.301,[5.301],"[""['hunt_et_al']""]"
3116,Cc1nc(C)c(C(=O)[OH:10])o1,O,0,0,3.08,[3.08],"[""['hunt_et_al']""]"
3117,CC(C)(CO)[NH3+:5],O,0,0,9.71,[9.71],"[""['hunt_et_al']""]"
3118,COC(=O)C1c2ccccc2-c2ccccc21,O,3002-30-0,methyl 9H-fluorene-9-carboxylate,11.5,[11.5],"[""['Ejoc202001649-sup-00001-misc_information.pdf']""]"
3119,C=C(C)C(=O)[OH:6],O,0,0,4.66,[4.66],"[""['hunt_et_al']""]"
3120,O=C([O-])CCCC(=O)[OH:8],O,0,0,5.41,[5.41],"[""['hunt_et_al']""]"
3121,O=C(NC[C@@H](O)C[NH+]1CCC(Oc2ccc(Cl)c(Cl)c2)CC1)c1c[nH:21]nc1C(F)(F)F,O,0,0,7.6,[7.6],"[""['hunt_et_al']""]"
3122,C[C@@H]1CCCC[N@H+:8]1C,O,0,0,10.22,[10.22],"[""['hunt_et_al']""]"
3123,O=C(O)CCC(=O)O,CC#N,110-15-6,butanedioic acid,17.6,[17.6],"[""['MeCN_Acids_COSMO-RS_2008_Table.pdf']""]"
3124,ClC(Cl)=CC[NH3+:4],O,0,0,9.47,[9.47],"[""['hunt_et_al']""]"
3125,C[NH+:6]1CCOCC1,O,0,0,7.4,[7.4],"[""['hunt_et_al']""]"
3126,CC[C@H](S)C(=O)[OH:6],O,0,0,3.53,[3.53],"[""['hunt_et_al']""]"
3127,ClC(Cl)=C(Cl)C[NH3+:4],O,0,0,7.28,[7.28],"[""['hunt_et_al']""]"
3128,C[Si](C)(C)c1cccc([NH3+:10])c1,O,0,0,4.64,[4.64],"[""['hunt_et_al']""]"
3129,CC[NH2+:9]c1ccccc1[N+](=O)[O-],O,0,0,-0.21,[-0.21],"[""['hunt_et_al']""]"
3130,CC(C)(C)c1cc(Br)cc(C(C)(C)C)c1[OH:15],O,0,0,10.83,[10.83],"[""['hunt_et_al']""]"
3131,CC(C)[NH2+:19]C[C@@H](O)COc1ccc(CCOCC2CC2)cc1,O,0,0,9.53,[9.53],"[""['hunt_et_al']""]"
3132,O=[N+]([O-])c1cccc(S(=O)(=O)NS(=O)(=O)c2ccc(Cl)c([N+](=O)[O-])c2)c1,CC#N,34350-21-5,-,7.859999999999999,"[7.84, 7.88]","[""['Ejoc202001649-sup-00001-misc_information.pdf', 'leito_acids']""]"
3133,Brc1c(Br)c(Br)c([OH:7])c(Br)c1Br,O,0,0,4.62,[4.62],"[""['hunt_et_al']""]"
3134,Cc1ccc([C@@H](O)C[NH2+:14]C(C)C)cc1C,O,0,0,9.38,[9.38],"[""['hunt_et_al']""]"
3135,Cc1nc2n(c(=O)c1CC[NH+:27]1CCC(c3noc4cc(F)ccc34)CC1)CCCC2,O,0,0,8.49,[8.49],"[""['hunt_et_al']""]"
3136,C[Si](C)(C)C[NH2+:11]c1ccccc1,O,0,0,5.3,[5.3],"[""['hunt_et_al']""]"
3137,CCC(=O)OCC[NH+:8](C)C,O,0,0,8.29,[8.29],"[""['hunt_et_al']""]"
3138,CC(C)c1cccc([NH3+:10])c1,O,0,0,4.67,[4.67],"[""['hunt_et_al']""]"
3139,C[n+]1ccc2ccc([OH:12])cc2c1,O,0,0,7.06,[7.06],"[""['hunt_et_al']""]"
3140,CN(C)[P+](Nc1ccccc1)(N(C)C)N(C)C,C1CCOC1,-,anilino-tris(dimethylamino)phosphanium,15.3,[15.3],"[""['Bases_pKa_values_MeCN_DMSO_THF_Water.pdf']""]"
3141,COC(=O)c1ccccc1S(=O)(=O)[NH:19]C(=O)Nc1nc(OC(F)F)cc(OC(F)F)n1,O,0,0,3.47,[3.47],"[""['hunt_et_al']""]"
3142,CCc1nc2c(C)cc(C)[nH+:12]c2[nH]1,O,0,0,5.5,[5.5],"[""['hunt_et_al']""]"
3143,O=[N+]([O-])c1cccc(S(=O)(=O)NS(=O)(=O)c2ccc(Cl)cc2)c1,CC#N,95468-16-9,N-(4-chlorophenyl)sulfonyl-3-nitrobenzenesulfonamide,9.17,"[9.17, 9.17]","[""['MeCN_Acids_COSMO-RS_2008_Table.pdf', 'Ejoc202001649-sup-00001-misc_information.pdf']""]"
3144,FC(F)C(F)(F)Sc1ccc([NH3+:9])cc1,O,0,0,2.87,[2.87],"[""['hunt_et_al']""]"
3145,Cc1cc(C)c(/N=N/c2c(C)cc([OH:20])cc2C)c(C)c1,O,0,0,8.2,[8.2],"[""['hunt_et_al']""]"
3146,O=P1(NS(=O)(=O)C(F)(F)C(F)(F)C(F)(F)C(F)(F)C(F)(F)C(F)(F)C(F)(F)C(F)(F)F)Oc2c(-c3ccccc3)cc3c(c2-c2c4c(cc(C5C=CC=CC5)c2O1)CCCC4)CCCC3,CC#N,1261302-68-4,-,6.745,"[6.69, 6.8]","[""['Ejoc202001649-sup-00001-misc_information.pdf', 'leito_acids']""]"
3147,C1CN=C2NCCC[NH+]2C1,C1CCOC1,-,"2,3,4,5,6,7,8,9-octahydropyrimido[1,2-a]pyrimidin-5-ium",20.2,"[19.4, 21.0]","[""['pKa_values_of_acids_and_bases_in_MeCN_DCE_DMSO_H2O_THF_C7_DME.pdf', 'Bases_pKa_values_MeCN_DMSO_THF_Water.pdf']""]"
3148,CCc1cc(C(C)C)c([OH:13])cc1C,O,0,0,10.01,[10.01],"[""['hunt_et_al']""]"
3149,C[NH2+:10]C[C@H](O)c1ccc(Cl)c(Cl)c1,O,0,0,9.11,[9.11],"[""['hunt_et_al']""]"
3150,Cn1c(=O)c2c([nH+]cn2C)n(C)c1=O,CC#N,,"1,3,7-trimethylpurin-7-ium-2,6-dione",7.51,[7.51],"[""['pKa_values_of_nitrogen_heterocycles.pdf']""]"
3151,Fc1ccc([NH3+:7])cc1Cl,O,0,0,3.66,[3.66],"[""['hunt_et_al']""]"
3152,Cc1ccc(C(=O)c2ccccc2C(=O)[OH:18])cc1,O,0,0,3.644,[3.644],"[""['hunt_et_al']""]"
3153,Cc1ccccc1[NH2+:13]C1CCCC1,O,0,0,5.07,[5.07],"[""['hunt_et_al']""]"
3154,COc1cc([C@@H](O)C[NH+:12](C)C)ccc1O,O,0,0,9.52,[9.52],"[""['hunt_et_al']""]"
3155,CC1(C)CC(=O)CC(C)(C)[NH2+:10]1,O,0,0,7.9,[7.9],"[""['hunt_et_al']""]"
3156,Oc1cccc(C(F)(F)F)c1,CN(C)C=O,98-17-9,3-(trifluoromethyl)phenol,15.7,[15.7],"[""['Ejoc202001649-sup-00001-misc_information.pdf']""]"
3157,C[C@H](Oc1cc(Cl)c(Cl)cc1Cl)C(=O)[OH:11],O,0,0,2.84,[2.84],"[""['hunt_et_al']""]"
3158,Oc1ccc([C@@H](O)C[NH2+:15]c2ccccc2)cc1O,O,0,0,8.85,[8.85],"[""['hunt_et_al']""]"
3159,COc1cncnc1[OH:8],O,0,0,8.64,[8.64],"[""['hunt_et_al']""]"
3160,CCCC(=O)N[OH:7],O,0,0,9.48,[9.48],"[""['hunt_et_al']""]"
3161,CC[NH2+:10]c1ccccc1C,O,0,0,4.96,[4.96],"[""['hunt_et_al']""]"
3162,CN(C)C(=N)[NH+](C)C,CC#N,-,"(N,N-dimethylcarbamimidoyl)-dimethylazanium",23.325000000000003,"[23.3, 23.35]","[""['pKa_values_of_acids_and_bases_in_MeCN_DCE_DMSO_H2O_THF_C7_DME.pdf', 'Bases_pKa_values_MeCN_DMSO_THF_Water.pdf']""]"
3163,C1CN=C2CCC[NH+]2C1,C1CCOC1,-,"3,4,5,6,7,8-hexahydro-2H-pyrrolo[1,2-a]pyrimidin-5-ium",17.2,[17.2],"[""['Bases_pKa_values_MeCN_DMSO_THF_Water.pdf']""]"
3164,[O-][Cl+3]([O-])([O-])O,C1CCOC1,7601-90-3,perchloric acid,7.57,[7.57],"[""['pKa_values_of_acids_and_bases_in_MeCN_DCE_DMSO_H2O_THF_C7_DME.pdf']""]"
3165,O=C(C(Cl)Cl)[OH:4],O,0,0,1.26,[1.26],"[""['hunt_et_al']""]"
3166,O=C(COc1ccc(F)cc1)[OH:10],O,0,0,3.56,[3.56],"[""['hunt_et_al']""]"
3167,O=[N+]([O-])c1cccc([OH:10])c1,O,0,0,8.38,[8.38],"[""['hunt_et_al']""]"
3168,CC(C)(C)c1ccc([S@@](=O)CC(=O)[OH:15])cc1,O,0,0,2.773,[2.773],"[""['hunt_et_al']""]"
3169,CCCc1cccc(CCC)c1[OH:13],O,0,0,11.25,[11.25],"[""['hunt_et_al']""]"
3170,N#CC(c1c(F)c(F)c(C(F)(F)F)c(F)c1F)c1c(F)c(F)c(C(F)(F)F)c(F)c1F,O,58436-28-5,"2,2-bis[2,3,5,6-tetrafluoro-4-(trifluoromethyl)phenyl]acetonitrile",4.4,[4.4],"[""['Ejoc202001649-sup-00001-misc_information.pdf']""]"
3171,CC[NH+:14](CC)CCOC(=O)c1ccccc1,O,0,0,8.85,[8.85],"[""['hunt_et_al']""]"
3172,C[C@@H](c1ccccc1)[NH3+:9],O,0,0,9.35,[9.35],"[""['hunt_et_al']""]"
3173,CC(C)C[C@@H](c1ccc(F)cc1)[NH3+:12],O,0,0,9.25,[9.25],"[""['hunt_et_al']""]"
3174,C[C@@H](c1cccc(Br)c1)[NH3+:9],O,0,0,9.88,[9.88],"[""['hunt_et_al']""]"
3175,COc1cc(C(=O)[OH:11])ccc1O,O,0,0,4.355,[4.355],"[""['hunt_et_al']""]"
3176,O=C(c1cc([N+](=O)[O-])ccc1[N+](=O)[O-])[OH:15],O,0,0,1.62,[1.62],"[""['hunt_et_al']""]"
3177,O=C(C[C@H](O)c1ccccc1)[OH:11],O,0,0,4.398,[4.398],"[""['hunt_et_al']""]"
3178,O=S(=O)(NS(=O)(=O)c1ccc(Cl)cc1)c1ccc(Cl)cc1,CN(C)C=O,2725-55-5,4-chloro-N-(4-chlorophenyl)sulfonylbenzenesulfonamide,3.46,[3.46],"[""['Ejoc202001649-sup-00001-misc_information.pdf']""]"
3179,COc1cc(OC)nc(NC(=O)[NH:18]S(=O)(=O)c2ncccc2C(F)(F)F)n1,O,0,0,4.37,[4.37],"[""['hunt_et_al']""]"
3180,Cc1cc([N+](=O)[O-])cc(C)c1[OH:12],O,0,0,7.19,[7.19],"[""['hunt_et_al']""]"
3181,CC(N)=[NH2+:3],O,0,0,12.4,[12.4],"[""['hunt_et_al']""]"
3182,O=C(c1c(F)c(F)c(-c2c(F)c(F)c(F)c(F)c2F)c(F)c1F)[OH:15],O,0,0,1.42,[1.42],"[""['hunt_et_al']""]"
3183,CC(=O)OCC[NH+:7](C)C,O,0,0,8.4,[8.4],"[""['hunt_et_al']""]"
3184,C=CC[NH2+:7]CC=C,O,0,0,9.29,[9.29],"[""['hunt_et_al']""]"
3185,CCCC[NH3+],CS(=O)C,-,butylazanium,11.1,[11.1],"[""['Bases_pKa_values_MeCN_DMSO_THF_Water.pdf']""]"
3186,CC(C)c1cc([OH:12])c(=O)ccc1Br,O,0,0,4.54,[4.54],"[""['hunt_et_al']""]"
3187,NS(=O)(=O)c1ccc(Cl)cc1,O,98-64-6,4-chlorobenzenesulfonamide,9.79,[9.79],"[""['Ejoc202001649-sup-00001-misc_information.pdf']""]"
3188,O=C(O)[C@H](c1ccccc1)N1CCC([NH+:25]2CCC(Oc3ccc(Cl)c(Cl)c3)CC2)CC1,O,0,0,9.1,[9.1],"[""['hunt_et_al']""]"
3189,CC[C@H](C)C[NH3+:6],O,0,0,10.64,[10.64],"[""['hunt_et_al']""]"
3190,CCOC(=O)C(C[C@H](C)[NH+:22](C)C)(c1ccccc1)c1ccccc1,O,0,0,10.12,[10.12],"[""['hunt_et_al']""]"
3191,O=[N+]([O-])c1cccc2c([NH3+:11])cccc12,O,0,0,2.73,[2.73],"[""['hunt_et_al']""]"
3192,CCn1cc(C(=O)[OH:23])c(=O)c2cc(F)c(N3CCN[C@H](C)C3)c(F)c21,O,0,0,5.82,[5.82],"[""['hunt_et_al']""]"
3193,O=[N+]([O-])c1cc(-c2ccccc2)c([OH:19])c([N+](=O)[O-])c1,O,0,0,3.848,[3.848],"[""['hunt_et_al']""]"
3194,C1CCC([NH2+:11]C2CCCC2)C1,O,0,0,10.93,[10.93],"[""['hunt_et_al']""]"
3195,Cc1ccc(C(=O)[OH:11])c(O)c1,O,0,0,3.17,[3.17],"[""['hunt_et_al']""]"
3196,O=C(/C=C/c1ccc[nH+]c1)[OH:11],O,0,0,4.4,[4.4],"[""['hunt_et_al']""]"
3197,CCC(CC)C[N@@H+:21](CC[N+]1(C)CCCCC1)c1ccccc1,O,0,0,3.79,[3.79],"[""['hunt_et_al']""]"
3198,COc1ccc([OH:11])c([N+](=O)[O-])c1,O,0,0,7.33,[7.33],"[""['hunt_et_al']""]"
3199,CC[NH2+]CC,O,-,diethylazanium,10.98,[10.98],"[""['Bases_pKa_values_MeCN_DMSO_THF_Water.pdf']""]"
3200,CC[C@@](C)(C[NH+:15](C)C)OC(=O)c1ccccc1,O,0,0,8.09,[8.09],"[""['hunt_et_al']""]"
3201,Cl,O,7647-01-0,chlorane,-5.9,"[-5.9, -5.9]","[""['pKa_values_of_acids_and_bases_in_MeCN_DCE_DMSO_H2O_THF_C7_DME.pdf', 'Ejoc202001649-sup-00001-misc_information.pdf']""]"
3202,COC(=O)CCc1ccc(OC[C@H](O)C[NH2+:17]C(C)C)cc1,O,0,0,9.5,[9.5],"[""['hunt_et_al']""]"
3203,Clc1cc(Cl)cc([OH:7])c1,O,0,0,8.18,[8.18],"[""['hunt_et_al']""]"
3204,FC(F)(F)C[OH:3],O,0,0,12.8,[12.8],"[""['hunt_et_al']""]"
3205,Cc1ccc([N+](=O)[O-])cc1[NH3+:8],O,0,0,2.345,[2.345],"[""['hunt_et_al']""]"
3206,CC(C)C[NH3+:5],O,0,0,10.72,[10.72],"[""['hunt_et_al']""]"
3207,Cc1ccc(/C=C/C(=O)[OH:12])cc1,O,0,0,4.56,[4.56],"[""['hunt_et_al']""]"
3208,CCCCCC(=O)[OH:8],O,0,0,4.849,[4.849],"[""['hunt_et_al']""]"
3209,C1=CC=[N+]C=C1,C1CCOC1,16969-45-2,pyridin-1-ium,5.5,[5.5],"[""['pKa_values_of_acids_and_bases_in_MeCN_DCE_DMSO_H2O_THF_C7_DME.pdf']""]"
3210,CC(C)(C)N[P+](N1CCCC1)(N1CCCC1)N1CCCC1,O,-,(tert-butylamino)-tripyrrolidin-1-ylphosphanium,17.5,[17.5],"[""['Bases_pKa_values_MeCN_DMSO_THF_Water.pdf']""]"
3211,CCOC(=O)N1CC[NH2+:8]CC1,O,0,0,8.2,[8.2],"[""['hunt_et_al']""]"
3212,O=C(NCC12CC3CC(CC(C3)C1)C2)c1cc(CC2CC[NH2+:25]CC2)ccc1Cl,O,0,0,10.1,[10.1],"[""['hunt_et_al']""]"
3213,CS(=O)(=O)c1ccc(C(=O)[OH:12])cc1,O,0,0,3.64,[3.64],"[""['hunt_et_al']""]"
3214,Cc1ccc([OH:9])c(C)c1,O,0,0,10.45,[10.45],"[""['hunt_et_al']""]"
3215,Cc1cc2cccc([OH:13])c2nc1C,O,0,0,10.2,[10.2],"[""['hunt_et_al']""]"
3216,O=C(O)c1ccc(Cl)c(Cl)c1,CC#N,51-44-5,"3,4-dichlorobenzoic acid",19.0,[19.0],"[""['MeCN_Acids_COSMO-RS_2008_Table.pdf']""]"
3217,O=[N+]([O-])c1ccc(Cl)cc1[NH3+:7],O,0,0,-1.52,[-1.52],"[""['hunt_et_al']""]"
3218,Oc1c(Cl)cc(Cl)cc1Cc1cc(Cl)cc(Cl)c1[OH:14],O,0,0,10.65,[10.65],"[""['hunt_et_al']""]"
3219,CC[C@H](Cl)C(=O)[OH:6],O,0,0,2.86,[2.86],"[""['hunt_et_al']""]"
3220,N#CCC[NH3+:5],O,0,0,7.75,[7.75],"[""['hunt_et_al']""]"
3221,CC(C)c1cc(C(C)C)c(-c2cc3ccccc3c3c2OP(=O)(O)Oc2c(-c4c(C(C)C)cc(C(C)C)cc4C(C)C)cc4ccccc4c2-3)c(C(C)C)c1,CC#N,791616-63-2,"13-hydroxy-10,16-bis[2,4,6-tri(propan-2-yl)phenyl]-12,14-dioxa-135-phosphapentacyclo[13.8.0.02,11.03,8.018,23]tricosa-1(15),2(11),3,5,7,9,16,18,20,22-decaene 13-oxide",13.615,"[13.63, 13.6]","[""['Ejoc202001649-sup-00001-misc_information.pdf', 'leito_acids']""]"
3222,FC(F)C[NH3+:3],O,0,0,7.3,[7.3],"[""['hunt_et_al']""]"
3223,O=C(/C=C/Cl)[OH:5],O,0,0,3.79,[3.79],"[""['hunt_et_al']""]"
3224,NS(=O)(=O)c1ccc([N+](=O)[O-])cc1,CN(C)C=O,6325-93-5,4-nitrobenzenesulfonamide,15.49,[15.49],"[""['Ejoc202001649-sup-00001-misc_information.pdf']""]"
3225,O=[N+]([O-])c1ccc2cccc([NH3+:11])c2c1,O,0,0,2.55,[2.55],"[""['hunt_et_al']""]"
3226,CCCCCC[NH+:13](C[C@@H](C)O)C[C@@H](C)O,O,0,0,8.5,[8.5],"[""['hunt_et_al']""]"
3227,CC[NH+:14](CC)CCOC(=O)c1ccc(Cl)cc1,O,0,0,8.08,[8.08],"[""['hunt_et_al']""]"
3228,C[C@H]1CCC[C@@H](C)[NH2+:8]1,O,0,0,11.07,[11.07],"[""['hunt_et_al']""]"
3229,CC[C@H]1C[N@@H+:22]2CC[C@H]1C[C@H]2[C@H](O)c1ccnc2ccc(OC)cc12,O,0,0,9.1,[9.1],"[""['hunt_et_al']""]"
3230,CCO[P@](C)(=O)SCC[NH+:8](C)C,O,0,0,7.77,[7.77],"[""['hunt_et_al']""]"
3231,O=C(Nc1ccccc1)c1ccccc1[OH:16],O,0,0,7.4,[7.4],"[""['hunt_et_al']""]"
3232,Cc1ccc(S(N)(=O)=O)cc1,CC#N,70-55-3,4-methylbenzenesulfonamide,25.884999999999998,"[24.82, 26.95]","[""['MeCN_Acids_COSMO-RS_2008_Table.pdf', 'Ejoc202001649-sup-00001-misc_information.pdf']""]"
3233,c1ccc([NH+](c2ccccc2)c2ccccc2)cc1,CC#N,-,triphenylazanium,1.28,[1.28],"[""['Bases_pKa_values_MeCN_DMSO_THF_Water.pdf']""]"
3234,N#CC(c1c(F)c(F)c(F)c(F)c1F)c1c(Cl)c(F)c(Cl)c(F)c1Cl,CC#N,64934-69-6,"2-(2,3,4,5,6-pentafluorophenyl)-2-(2,4,6-trichloro-3,5-difluorophenyl)acetonitrile",20.13,"[20.13, 20.13, 20.13, 20.13]","[""['pKa_values_of_acids_in_acetonitrile.pdf']"", ""['MeCN_Acids_COSMO-RS_2008_Table.pdf', 'Ejoc202001649-sup-00001-misc_information.pdf', 'leito_acids']""]"