,Solute SMILES,Solvent SMILES,Solute CAS,Solute IUPAC,pKa (avg),pKa (all),Source (all)
2914,O=[N+]([O-])c1cc(S(=O)(=O)NS(=O)(=O)c2ccc(Cl)c([N+](=O)[O-])c2)ccc1Cl,C(CCl)Cl,64646-01-1,4-chloro-N-((4-chloro-3-nitrophenyl)sulfonyl)-3-nitrobenzenesulfonamide,40.4,"[40.4, 40.4]","['[""[\'Ejoc202001649-sup-00001-misc_information.pdf\', \'leito_acids\']""]']"
2915,N#CC(c1c(F)c(F)nc(F)c1F)c1c(F)c(F)c2c(F)c(F)c(F)c(F)c2c1F,CC#N,62325-37-5,"2-(1,3,4,5,6,7,8-heptafluoronaphthalen-2-yl)-2-(2,3,5,6-tetrafluoropyridin-4-yl)acetonitrile",16.015,"[16.01, 16.02, 16.02, 16.01]","['[""[\'pKa_values_of_acids_in_acetonitrile.pdf\', \'leito_acids\']"", ""[\'MeCN_Acids_COSMO-RS_2008_Table.pdf\', \'Ejoc202001649-sup-00001-misc_information.pdf\']""]']"
2916,CO/N=C(\C(=O)N[C@@H]1C(=O)N2C(C(=O)O)=C(CSc3nc(=O)c(O)nn3C)CS[C@H]12)c1csc(N)n1,O,0,0,2.7,[2.7],"['[""[\'hunt_et_al\']""]']"
2917,[NH3+]c1cccc(-c2cc(=O)c3ccccc3o2)c1,O,0,0,3.56,[3.56],"['[""[\'hunt_et_al\']""]']"
2918,CSc1ncnc(O)c1C,O,0,0,9.12,[9.12],"['[""[\'hunt_et_al\']""]']"
2919,Cc1cccc(S(N)(=O)=O)c1,CC#N,1899-94-1,3-methylbenzenesulfonamide,24.67,[24.67],"['[""[\'MeCN_Acids_COSMO-RS_2008_Table.pdf\']""]']"
2920,CCC[C@H]([NH3+])c1ccccc1,O,0,0,9.45,[9.45],"['[""[\'hunt_et_al\']""]']"
2921,O=[N+]([O-])c1ccc(S(=O)(=O)O)cc1,CC#N,138-42-1,4-nitrobenzenesulfonic acid,6.4,"[6.6, 6.4, 6.3, 6.3, 6.4]","['[""[\'MeCN_Acids_COSMO-RS_2008_Table.pdf\', \'DCE_2011_pKa_Table_MeCN.pdf\', \'pKa_values_of_acids_in_acetonitrile.pdf\', \'Ejoc202001649-sup-00001-misc_information.pdf\', \'leito_acids\']""]']"
2922,N#CC(c1c(F)c(F)c(F)c(F)c1F)c1c(F)c(F)c(Cl)c(F)c1F,CS(=O)C,42238-36-8,"2-(4-chloro-2,3,5,6-tetrafluorophenyl)-2-(2,3,4,5,6-pentafluorophenyl)acetonitrile",7.5,"[7.5, 7.5]","['[""[\'a_unified_view_to_bronsted_acidity_scales.pdf\']"", ""[\'Ejoc202001649-sup-00001-misc_information.pdf\']""]']"
2923,COc1ccc(S(=O)(=O)[N-]C(=O)N2CCC([NH+]3CCC(Oc4ccc(Cl)c(Cl)c4)CC3)CC2)cc1,O,0,0,8.3,[8.3],"['[""[\'hunt_et_al\']""]']"
2924,CC[NH3+],CS(=O)C,16999-99-8,ethylazanium,10.9,[10.9],"['[""[\'Bases_pKa_values_MeCN_DMSO_THF_Water.pdf\']""]']"
2925,Nc1c(C(F)(F)F)c(C(F)(F)F)c(C(F)(F)F)c(C(F)(F)F)c1C(F)(F)F,CS(=O)C,58956-76-6,"2,3,4,5,6-pentakis(trifluoromethyl)aniline",12.5,[12.5],"['[""[\'Ejoc202001649-sup-00001-misc_information.pdf\']""]']"
2926,Cc1cccc([N+](=O)[O-])c1[NH3+],O,0,0,-0.71,[-0.71],"['[""[\'hunt_et_al\']""]']"
2927,Cc1ccccc1[NH3+],O,0,0,4.39,[4.39],"['[""[\'hunt_et_al\']""]']"
2928,O=[N+]([O-])c1cccc([N+](=O)[O-])c1Nc1ccc(Cl)cc1Cl,O,0,0,12.53,[12.53],"['[""[\'hunt_et_al\']""]']"
2929,O=C(O)c1c(O)cccc1O,CC#N,303-07-1,"2,6-dihydroxybenzoic acid",12.6,[12.6],"['[""[\'MeCN_Acids_COSMO-RS_2008_Table.pdf\']""]']"
2930,O=S(=O)(c1ccccc1)N1CC[NH+](Cc2ccccc2)CC1,O,0,0,5.6,[5.6],"['[""[\'hunt_et_al\']""]']"
2931,Cn1c(=O)c2c([nH+]cn2C)n(C)c1=O,O,,"1,3,7-trimethylpurin-7-ium-2,6-dione",0.6,[0.6],"['[""[\'pKa_values_of_nitrogen_heterocycles.pdf\']""]']"
2932,CCC(CC)NC(=O)c1nnn(-c2ccccc2)c1NS(=O)(=O)c1ccc(C)cc1,O,0,0,3.3,[3.3],"['[""[\'hunt_et_al\']""]']"
2933,COc1ccc(CCC(=O)O)cc1,O,0,0,4.69,[4.69],"['[""[\'hunt_et_al\']""]']"
2934,CC[NH+](CC)CC,CS(=O)C,17440-81-2,triethylazanium,9.0,"[9.0, 9.0]","['[""[\'pKa_values_of_acids_and_bases_in_MeCN_DCE_DMSO_H2O_THF_C7_DME.pdf\', \'Bases_pKa_values_MeCN_DMSO_THF_Water.pdf\']""]']"
2935,C[NH2+]c1ccccc1C(=O)OC,O,0,0,3.53,[3.53],"['[""[\'hunt_et_al\']""]']"
2936,C1CC[NH2+]C1,O,0,0,11.285,"[11.3, 11.27]","['[""[\'hunt_et_al\']""]', '[""[\'Bases_pKa_values_MeCN_DMSO_THF_Water.pdf\']""]']"
2937,CC(=O)c1ccccc1C(=O)O,O,0,0,4.13,[4.13],"['[""[\'hunt_et_al\']""]']"
2938,CC[NH+](CC)CCC(C)=O,O,0,0,9.04,[9.04],"['[""[\'hunt_et_al\']""]']"
2939,CCC(=O)C(C[C@H](C)[NH+]1CCOCC1)(c1ccccc1)c1ccccc1,O,0,0,6.68,[6.68],"['[""[\'hunt_et_al\']""]']"
2940,CCc1ccc(O)c2c(CC)c(C)oc12,O,0,0,9.94,[9.94],"['[""[\'hunt_et_al\']""]']"
2941,CC(C)(C)c1ccc([NH3+])cc1,O,0,0,4.95,[4.95],"['[""[\'hunt_et_al\']""]']"
2942,CCOc1nc(NC)nc(NC(=O)NS(=O)(=O)c2ccccc2C(=O)OC)n1,O,0,0,4.2,[4.2],"['[""[\'hunt_et_al\']""]']"
2943,Oc1ccc2cccnc2c1,O,0,0,8.87,[8.87],"['[""[\'hunt_et_al\']""]']"
2944,[NH3+]CCCCC(Cl)(Cl)Cl,O,0,0,10.12,[10.12],"['[""[\'hunt_et_al\']""]']"
2945,Cc1ccc([NH3+])cc1C,O,0,0,5.17,[5.17],"['[""[\'hunt_et_al\']""]']"
2946,C[C@H]1CC[N@H+](C)[C@@H](C)C1,O,0,0,10.09,[10.09],"['[""[\'hunt_et_al\']""]']"
2947,O=C(O)c1ccccc1,O,0,0,4.1433333333333335,"[3.98, 4.25, 4.2]","['[""[\'hunt_et_al\']""]', '[""[\'pKa_values_of_acids_and_bases_in_MeCN_DCE_DMSO_H2O_THF_C7_DME.pdf\', \'Ejoc202001649-sup-00001-misc_information.pdf\']""]']"
2948,O=S(=O)(N=S(=O)(NS(=O)(=NS(=O)(=O)C(F)(F)F)c1ccccc1)c1ccccc1)C(F)(F)F,C(CCl)Cl,771460-54-9,"1,1,1-trifluoro-N-[oxo-phenyl-[[S-phenyl-N-(trifluoromethylsulfonyl)sulfonimidoyl]amino]-6-sulfanylidene]methanesulfonamide",33.6,[33.6],"['[""[\'leito_acids\']""]']"
2949,C[C@@H](O)C[NH+](C[C@@H](C)O)C(C)(C)C,O,0,0,9.4,[9.4],"['[""[\'hunt_et_al\']""]']"
2950,O=C(O)[C@H](O)c1cccc(F)c1,O,0,0,4.24,[4.24],"['[""[\'hunt_et_al\']""]']"
2951,CCOP(=O)(C[NH+](CC)CC)OCC,O,0,0,6.4,[6.4],"['[""[\'hunt_et_al\']""]']"
2952,NCCC[NH3+],C1CCOC1,-,3-aminopropylazanium,14.8,[14.8],"['[""[\'Bases_pKa_values_MeCN_DMSO_THF_Water.pdf\']""]']"
2953,CCOc1ccnc(O)n1,O,0,0,10.7,[10.7],"['[""[\'hunt_et_al\']""]']"
2954,N#Cc1ccc(C(=O)N2CCC3(CC2)Nc2cccc(F)c2C(N)=[NH+]3)cc1,O,0,0,9.0,[9.0],"['[""[\'hunt_et_al\']""]']"
2955,O=[N+]([O-])c1ccc(S(=O)(=O)NS(=O)(=O)c2ccc(Cl)cc2)cc1,CC#N,95468-16-9,N-(4-chlorophenyl)sulfonyl-4-nitrobenzenesulfonamide,9.17,"[9.17, 9.17, 9.17, 9.17]","['[""[\'DCE_2011_pKa_Table_MeCN.pdf\', \'a_unified_view_to_bronsted_acidity_scales.pdf\', \'pKa_values_of_acids_in_acetonitrile.pdf\', \'leito_acids\']""]']"
2956,Cc1ncnc2c(O)cccc12,O,0,0,8.77,[8.77],"['[""[\'hunt_et_al\']""]']"
2957,C[NH2+]CCc1ccccn1,O,0,0,9.89,"[10.0, 9.78]","['[""[\'hunt_et_al\']"", ""[\'hunt_et_al\']""]']"
2958,C[Si](C)(C[NH3+])c1ccccc1,O,0,0,10.36,[10.36],"['[""[\'hunt_et_al\']""]']"
2959,O=C(O)C(Cl)(Cl)Cl,CC#N,76-03-9,"2,2,2-trichloroacetic acid",10.75,[10.75],"['[""[\'MeCN_Acids_COSMO-RS_2008_Table.pdf\']""]']"
2960,CSc1ccccc1[C@@H](O)C[NH2+]C(C)C,O,0,0,9.41,[9.41],"['[""[\'hunt_et_al\']""]']"
2961,COc1ccc(C(=C(C#N)C#N)C(C#N)C#N)cc1OC,C(CCl)Cl,1261286-75-2,,36.1,[36.1],"['[""[\'leito_acids\']""]']"
2962,O=S(=O)(Cc1cc(C(F)(F)F)cc(C(F)(F)F)c1)C(F)(F)F,CC#N,434957-15-0,"1,3-bis(trifluoromethyl)-5-(trifluoromethylsulfonylmethyl)benzene",22.84,[22.84],"['[""[\'Ejoc202001649-sup-00001-misc_information.pdf\']""]']"
2963,c1cc[nH+]cc1,CS(=O)C,16969-45-2,pyridin-1-ium,3.4,[3.4],"['[""[\'Bases_pKa_values_MeCN_DMSO_THF_Water.pdf\']""]']"
2964,O=C1NS(=O)(=O)c2ccccc21,CC#N,128-44-9,"1,1-dioxo-1,2-benzothiazol-3-one",14.569999999999999,"[14.57, 14.57, 14.57, 14.57, 14.57]","['[""[\'MeCN_Acids_COSMO-RS_2008_Table.pdf\', \'pKa_values_of_acids_and_bases_in_MeCN_DCE_DMSO_H2O_THF_C7_DME.pdf\', \'pKa_values_of_acids_in_acetonitrile.pdf\', \'Ejoc202001649-sup-00001-misc_information.pdf\', \'leito_acids\']""]']"
2965,C[C@@H]1CCC[N@H+]1C,O,0,0,10.2,[10.2],"['[""[\'hunt_et_al\']""]']"
2966,C[C@](O)(C(=O)O)c1ccccc1,O,0,0,3.53,[3.53],"['[""[\'hunt_et_al\']""]']"
2967,C[NH+](C)c1ccc(Cl)cc1,O,0,0,4.395,[4.395],"['[""[\'hunt_et_al\']""]']"
2968,C=CC[NH+]1CCOCC1,O,0,0,7.02,[7.02],"['[""[\'hunt_et_al\']""]']"
2969,CCOC(=O)c1cc(C(C)(C)C)c(O)c(C(C)(C)C)c1,O,0,0,9.5,[9.5],"['[""[\'hunt_et_al\']""]']"
2970,O=C(O)CC(=O)C(Cl)Cl,O,0,0,2.11,[2.11],"['[""[\'hunt_et_al\']""]']"
2971,NC(Nc1ccccc1)=[NH+]c1ccccc1,CC#N,-,[amino(anilino)methylidene]-phenylazanium,17.9,[17.9],"['[""[\'Bases_pKa_values_MeCN_DMSO_THF_Water.pdf\']""]']"
2972,O=C(O)C[C@H](O)c1ccccc1,O,0,0,4.398,[4.398],"['[""[\'hunt_et_al\']""]']"
2973,C[NH+](CCO)CCO,O,0,0,8.52,[8.52],"['[""[\'hunt_et_al\']""]']"
2974,O=[N+]([O-])c1cc([N+](=O)[O-])c(S(=O)(=O)O)c([N+](=O)[O-])c1,C(CCl)Cl,2508-19-2,"2,4,6-trinitrobenzenesulfonic acid",33.6,[33.6],"['[""[\'leito_acids\']""]']"
2975,[NH3+]c1ccc2c([N+](=O)[O-])cccc2c1,O,0,0,3.01,[3.01],"['[""[\'hunt_et_al\']""]']"
2976,Fc1c(F)c(F)c(C2c3c(F)c(F)c(F)c(F)c3-c3c(F)c(F)c(F)c(F)c32)c(F)c1F,C(CCl)Cl,63264-80-2,"1,2,3,4,5,6,7,8-octafluoro-9-(2,3,4,5,6-pentafluorophenyl)-9H-fluorene",53.79999999999999,"[53.8, 53.8, 53.8]","['[""[\'pKa_values_of_acids_and_bases_in_MeCN_DCE_DMSO_H2O_THF_C7_DME.pdf\', \'Ejoc202001649-sup-00001-misc_information.pdf\', \'leito_acids\']""]']"
2977,O=C1CC2(CCCC2)CC(=O)N1CCCC[NH+]1CCN(c2ncccn2)CC1,O,0,0,7.61,[7.61],"['[""[\'hunt_et_al\']""]']"
2978,CC(C)C[NH2+]c1ccccc1,O,0,0,4.43,[4.43],"['[""[\'hunt_et_al\']""]']"
2979,O=C(NO)c1ccc([N+](=O)[O-])cc1,O,0,0,8.01,[8.01],"['[""[\'hunt_et_al\']""]']"
2980,Nc1ncc(Br)c[nH+]1,O,0,0,1.95,[1.95],"['[""[\'hunt_et_al\']""]']"
2981,[NH3+]CC(F)F,O,0,0,7.3,[7.3],"['[""[\'hunt_et_al\']""]']"
2982,CCOC(=O)N1CCC2(CC1)Nc1cccc(Cl)c1C(N)=[NH+]2,O,0,0,9.0,[9.0],"['[""[\'hunt_et_al\']""]']"
2983,CN(C)c1ccccc1S(=O)(=O)[N-]C(=O)N1CCC([NH+]2CCC(Oc3ccc(Cl)c(Cl)c3)CC2)CC1,O,0,0,8.6,[8.6],"['[""[\'hunt_et_al\']""]']"
2984,CCC[NH+](CCC)CCC,CC#N,-,tripropylazanium,18.26,[18.26],"['[""[\'Bases_pKa_values_MeCN_DMSO_THF_Water.pdf\']""]']"
2985,CCCSc1ccc2nc(NC(=O)OC)[nH]c2c1,O,0,0,10.5,[10.5],"['[""[\'hunt_et_al\']""]']"
2986,O=C(O)[C@H](CO)c1ccccc1,O,0,0,3.53,[3.53],"['[""[\'hunt_et_al\']""]']"
2987,O=S(=O)(c1cc(S(=O)(=O)C(F)(F)F)c(O)c(S(=O)(=O)C(F)(F)F)c1)C(F)(F)F,O,71571-37-4,"2,4,6-tris((trifluoromethyl)sulfonyl)phenol",-2.0,[-2.0],"['[""[\'Ejoc202001649-sup-00001-misc_information.pdf\']""]']"
2988,Cc1ccc([NH3+])cc1,O,0,0,5.1,[5.1],"['[""[\'hunt_et_al\']""]']"
2989,CCCCC[C@H](O)C(C)(C)[NH3+],O,0,0,9.85,[9.85],"['[""[\'hunt_et_al\']""]']"
2990,C[NH+](C)Cc1cccnc1,O,0,0,8.0,[8.0],"['[""[\'hunt_et_al\']""]']"
2991,O=C(O)c1ccccc1C(=O)Nc1cccc2ccccc12,O,0,0,4.6,[4.6],"['[""[\'hunt_et_al\']""]']"
2992,CCCCCCCCCCCC(=O)O,O,0,0,5.3,[5.3],"['[""[\'hunt_et_al\']""]']"
2993,CSc1ccc([NH3+])cc1I,O,0,0,3.44,[3.44],"['[""[\'hunt_et_al\']""]']"
2994,CN(C)P(=N[P+](N=P(N(C)C)(N(C)C)N(C)C)(N=P(N(C)C)(N(C)C)N(C)C)NC(C)(C)C)(N(C)C)N(C)C,CS(=O)C,-,(tert-butylamino)-tris[[tris(dimethylamino)-_5-phosphanylidene]amino]phosphanium,30.25,[30.25],"['[""[\'Bases_pKa_values_MeCN_DMSO_THF_Water.pdf\']""]']"
2995,Oc1ccccc1-c1ccccc1,O,0,0,10.01,[10.01],"['[""[\'hunt_et_al\']""]']"
2996,C1=C(c2ccccc2)[NH2+]CC1,O,0,0,6.84,[6.84],"['[""[\'hunt_et_al\']""]']"
2997,C[NH+]1CC=CC1,O,0,0,9.88,[9.88],"['[""[\'hunt_et_al\']""]']"
2998,[NH3+]c1ccc2nccnc2n1,O,0,0,4.25,[4.25],"['[""[\'hunt_et_al\']""]']"
2999,C[N@@H+]1CCC[C@H]1c1ccc[nH+]c1,O,0,0,3.2,[3.2],"['[""[\'hunt_et_al\']""]']"
3000,Cc1ccc(S(N)(=O)=O)cc1,O,70-55-3,4-methylbenzenesulfonamide,10.21,[10.21],"['[""[\'Ejoc202001649-sup-00001-misc_information.pdf\']""]']"
3001,O=[N+]([O-])c1ccc(S(=O)(=O)NS(=O)(=O)c2ccc([N+](=O)[O-])cc2)cc1,C(CCl)Cl,7/6/09,4-nitro-N-(4-nitrophenyl)sulfonylbenzenesulfonamide,41.1,"[41.1, 41.1]","['[""[\'Ejoc202001649-sup-00001-misc_information.pdf\', \'leito_acids\']""]']"
3002,[NH3+]CCc1ccccn1,O,0,0,9.78,[9.78],"['[""[\'hunt_et_al\']""]']"
3003,Br,CS(=O)C,10035-10-6,bromane,-6.8,"[-6.8, -6.8]","['[""[\'pKa_values_of_acids_and_bases_in_MeCN_DCE_DMSO_H2O_THF_C7_DME.pdf\', \'Ejoc202001649-sup-00001-misc_information.pdf\']""]']"
3004,O=[N+]([O-])c1ccc2cc[nH]c2c1,CC#N,4769-96-4,6-nitro-1H-indole,27.79,"[27.79, 27.79]","['[""[\'pKa_values_of_acids_in_acetonitrile.pdf\', \'Ejoc202001649-sup-00001-misc_information.pdf\']""]']"
3005,CC(=O)O,C1CCOC1,64-19-7,acetic acid,22.48,[22.48],"['[""[\'pKa_values_of_acids_and_bases_in_MeCN_DCE_DMSO_H2O_THF_C7_DME.pdf\']""]']"
3006,C[NH2+]c1ccccc1,CS(=O)C,-,methyl(phenyl)azanium,2.94,[2.94],"['[""[\'Bases_pKa_values_MeCN_DMSO_THF_Water.pdf\']""]']"
3007,O=S(=O)(O)C(F)(F)F,C1CCOC1,1493-13-6,trifluoromethanesulfonic acid,7.83,[7.83],"['[""[\'pKa_values_of_acids_and_bases_in_MeCN_DCE_DMSO_H2O_THF_C7_DME.pdf\']""]']"
3008,c1cncc(CC[NH+]2CCCCC2)c1,O,0,0,8.81,[8.81],"['[""[\'hunt_et_al\']""]']"
3009,[NH3+]c1ccc([N+](=O)[O-])c(C(F)(F)F)c1,O,0,0,-0.05,[-0.05],"['[""[\'hunt_et_al\']""]']"
3010,c1ccc2[nH+]c[nH]c2c1,O,-,1H-benzimidazol-3-ium,5.56,"[5.56, 5.56]","['[""[\'pKa_values_of_nitrogen_heterocycles.pdf\', \'Bases_pKa_values_MeCN_DMSO_THF_Water.pdf\']""]']"
3011,CN(c1cccc[nH+]1)S(C)(=O)=O,O,0,0,1.73,[1.73],"['[""[\'hunt_et_al\']""]']"
3012,CCCC[C@H]([NH3+])c1ccccc1,O,0,0,9.45,[9.45],"['[""[\'hunt_et_al\']""]']"
3013,Cc1ccccc1O,O,0,0,10.28,[10.28],"['[""[\'hunt_et_al\']""]']"
3014,CCO[Si](C)(C[NH3+])OCC,O,0,0,9.2,[9.2],"['[""[\'hunt_et_al\']""]']"
3015,COc1cc([NH3+])c2ccccc2c1,O,0,0,3.26,[3.26],"['[""[\'hunt_et_al\']""]']"
3016,[NH3+]c1cc(Br)c2ccccc2c1,O,0,0,3.4,[3.4],"['[""[\'hunt_et_al\']""]']"
3017,Cc1ccccc1CCC(=O)O,O,0,0,4.66,[4.66],"['[""[\'hunt_et_al\']""]']"
3018,CC(C)(C)[NH+]1CCCC1,O,0,0,11.13,[11.13],"['[""[\'hunt_et_al\']""]']"
3019,O=C(O)CCCO,O,0,0,4.71,[4.71],"['[""[\'hunt_et_al\']""]']"
3020,C[NH2+]C[C@H](O)c1ccc(O)c(OC)c1,O,0,0,9.52,[9.52],"['[""[\'hunt_et_al\']""]']"
3021,CC(C)(O)C[NH3+],O,0,0,9.25,[9.25],"['[""[\'hunt_et_al\']""]']"
3022,CC(C)(C)c1ccc(SCC(=O)O)cc1,O,0,0,3.758,[3.758],"['[""[\'hunt_et_al\']""]']"
3023,C[NH2+]c1cccc2ccccc12,O,0,0,3.67,[3.67],"['[""[\'hunt_et_al\']""]']"
3024,O=C(NC[C@@H](O)CN1CCC(Oc2ccc(Cl)c(Cl)c2)CC1)c1c[nH]nc1C(F)(F)F,O,0,0,7.6,[7.6],"['[""[\'hunt_et_al\']""]']"
3025,CN(C)c1ccc(C(=O)O)cc1,CC#N,619-84-1,4-(dimethylamino)benzoic acid,23.0,[23.0],"['[""[\'MeCN_Acids_COSMO-RS_2008_Table.pdf\']""]']"
3026,Oc1cc(Cl)cc(Cl)c1,O,0,0,8.18,[8.18],"['[""[\'hunt_et_al\']""]']"
3027,Oc1ccc2ncncc2c1,O,0,0,8.21,[8.21],"['[""[\'hunt_et_al\']""]']"
3028,COC(=O)C1c2ccccc2-c2ccccc21,O,3002-30-0,methyl 9H-fluorene-9-carboxylate,11.5,[11.5],"['[""[\'Ejoc202001649-sup-00001-misc_information.pdf\']""]']"
3029,C[C@@H]1[C@@H](C)C(C)(C)[NH2+]C1(C)C,O,0,0,11.4,[11.4],"['[""[\'hunt_et_al\']""]']"
3030,O=C(O)CCC(=O)O,CC#N,110-15-6,butanedioic acid,17.6,[17.6],"['[""[\'MeCN_Acids_COSMO-RS_2008_Table.pdf\']""]']"
3031,S=C(Nc1ccccc1)c1ccccc1,O,0,0,10.6,[10.6],"['[""[\'hunt_et_al\']""]']"
3032,Oc1cccc(-c2ccccc2)c1,O,0,0,9.64,[9.64],"['[""[\'hunt_et_al\']""]']"
3033,CCOC(=O)[C@@H]([NH3+])CC(C)C,O,0,0,7.57,[7.57],"['[""[\'hunt_et_al\']""]']"
3034,[NH3+]C(Cc1ccccc1)Cc1ccccc1,O,0,0,8.0,[8.0],"['[""[\'hunt_et_al\']""]']"
3035,O=C(O)COc1nc(Cl)c(Cl)cc1Cl,O,0,0,3.97,[3.97],"['[""[\'hunt_et_al\']""]']"
3036,Nc1cccc[nH+]1,O,0,0,6.82,[6.82],"['[""[\'hunt_et_al\']""]']"
3037,O=[N+]([O-])c1cccc(S(=O)(=O)NS(=O)(=O)c2ccc(Cl)c([N+](=O)[O-])c2)c1,CC#N,34350-21-5,-,7.859999999999999,"[7.84, 7.88]","['[""[\'Ejoc202001649-sup-00001-misc_information.pdf\', \'leito_acids\']""]']"
3038,CC[C@@H](C)[NH+]1CCC(c2ccccc2)(c2ccccc2)CC1,O,0,0,9.67,[9.67],"['[""[\'hunt_et_al\']""]']"
3039,O=C(O)Cc1ccc(I)cc1,O,0,0,4.18,[4.18],"['[""[\'hunt_et_al\']""]']"
3040,O=C(c1ccccc1)[C@@H](C[NH+]1CCOCC1)c1ccccc1,O,0,0,6.17,[6.17],"['[""[\'hunt_et_al\']""]']"
3041,O=C(O)c1c(O)cccc1[N+](=O)[O-],O,0,0,2.24,[2.24],"['[""[\'hunt_et_al\']""]']"
3042,O=C(O)c1c(Cl)ccc(Cl)c1Cl,O,0,0,1.5,[1.5],"['[""[\'hunt_et_al\']""]']"
3043,Cc1c([NH3+])cccc1Cl,O,0,0,2.49,[2.49],"['[""[\'hunt_et_al\']""]']"
3044,CN(C)[P+](Nc1ccccc1)(N(C)C)N(C)C,C1CCOC1,-,anilino-tris(dimethylamino)phosphanium,15.3,[15.3],"['[""[\'Bases_pKa_values_MeCN_DMSO_THF_Water.pdf\']""]']"
3045,O=[N+]([O-])c1cccc(S(=O)(=O)NS(=O)(=O)c2ccc(Cl)cc2)c1,CC#N,95468-16-9,N-(4-chlorophenyl)sulfonyl-3-nitrobenzenesulfonamide,9.17,"[9.17, 9.17]","['[""[\'MeCN_Acids_COSMO-RS_2008_Table.pdf\', \'Ejoc202001649-sup-00001-misc_information.pdf\']""]']"
3046,O=C(O)c1ccccc1C(=O)c1ccccc1,O,0,0,3.536,[3.536],"['[""[\'hunt_et_al\']""]']"
3047,C=C1CC[NH+](C)CC1,O,0,0,9.03,[9.03],"['[""[\'hunt_et_al\']""]']"
3048,c1ccc2c(c1)Sc1ccccc1N2CC[NH+]1CCCC1,O,0,0,9.7,[9.7],"['[""[\'hunt_et_al\']""]']"
3049,O=P1(NS(=O)(=O)C(F)(F)C(F)(F)C(F)(F)C(F)(F)C(F)(F)C(F)(F)C(F)(F)C(F)(F)F)Oc2c(-c3ccccc3)cc3c(c2-c2c4c(cc(C5C=CC=CC5)c2O1)CCCC4)CCCC3,CC#N,1261302-68-4,-,6.745,"[6.69, 6.8]","['[""[\'Ejoc202001649-sup-00001-misc_information.pdf\', \'leito_acids\']""]']"
3050,C1CN=C2NCCC[NH+]2C1,C1CCOC1,-,"2,3,4,5,6,7,8,9-octahydropyrimido[1,2-a]pyrimidin-5-ium",20.2,"[19.4, 21.0]","['[""[\'pKa_values_of_acids_and_bases_in_MeCN_DCE_DMSO_H2O_THF_C7_DME.pdf\', \'Bases_pKa_values_MeCN_DMSO_THF_Water.pdf\']""]']"
3051,Cn1c(=O)c2c([nH+]cn2C)n(C)c1=O,CC#N,,"1,3,7-trimethylpurin-7-ium-2,6-dione",7.51,[7.51],"['[""[\'pKa_values_of_nitrogen_heterocycles.pdf\']""]']"
3052,O=C(O)CBr,O,0,0,2.89,[2.89],"['[""[\'hunt_et_al\']""]']"
3053,O=C(O)COc1cccc(Br)c1,O,0,0,3.095,[3.095],"['[""[\'hunt_et_al\']""]']"
3054,C/C=C(/C)C(=O)O,O,0,0,4.29,[4.29],"['[""[\'hunt_et_al\']""]']"
3055,COc1ccc(-c2cnc(O)nc2)cc1,O,0,0,8.86,[8.86],"['[""[\'hunt_et_al\']""]']"
3056,O=[N+]([O-])c1cc(C2CCCCC2)c(O)c([N+](=O)[O-])c1,O,0,0,4.52,[4.52],"['[""[\'hunt_et_al\']""]']"
3057,C[C@@H]([NH3+])[C@@H](O)c1ccc(O)cc1,O,0,0,8.7,[8.7],"['[""[\'hunt_et_al\']""]']"
3058,O=C([N-]S(=O)(=O)N1CCC([NH+]2CCC(Oc3ccc(Cl)c(Cl)c3)CC2)CC1)c1ccccc1,O,0,0,8.1,[8.1],"['[""[\'hunt_et_al\']""]']"
3059,CC(C)(C)S[NH2+]c1ccccc1,O,0,0,3.44,[3.44],"['[""[\'hunt_et_al\']""]']"
3060,CC[NH2+]c1ccccc1C,O,0,0,4.96,[4.96],"['[""[\'hunt_et_al\']""]']"
3061,NC1=[NH+][C@H](c2ccco2)Nc2c(F)ccc(F)c21,O,0,0,8.2,[8.2],"['[""[\'hunt_et_al\']""]']"
3062,COc1c(N2C[C@@H]3CCCN[C@@H]3C2)c(F)cc2c(=O)c(C(=O)O)cn(C3CC3)c12,O,0,0,6.31,[6.31],"['[""[\'hunt_et_al\']""]']"
3063,Oc1cccc(C(F)(F)F)c1,CN(C)C=O,98-17-9,3-(trifluoromethyl)phenol,15.7,[15.7],"['[""[\'Ejoc202001649-sup-00001-misc_information.pdf\']""]']"
3064,C[C@@H](CC(c1ccccc1)c1ccccc1)[NH+]1CCOCC1,O,0,0,6.85,[6.85],"['[""[\'hunt_et_al\']""]']"
3065,COc1cc2ncnc(Nc3ccc(F)c(Cl)c3)c2cc1NC(=O)/C=C/C[NH+]1CCCCC1,O,0,0,9.36,[9.36],"['[""[\'hunt_et_al\']""]']"
3066,CCOC(=O)N1CCC(c2cc(=O)n(-c3ccccc3)[nH]2)CC1,O,0,0,6.8,[6.8],"['[""[\'hunt_et_al\']""]']"
3067,CN(C)C(=N)[NH+](C)C,CC#N,-,"(N,N-dimethylcarbamimidoyl)-dimethylazanium",23.325000000000003,"[23.3, 23.35]","['[""[\'pKa_values_of_acids_and_bases_in_MeCN_DCE_DMSO_H2O_THF_C7_DME.pdf\', \'Bases_pKa_values_MeCN_DMSO_THF_Water.pdf\']""]']"
3068,Nc1[nH]c2ccccc2[nH+]1,O,0,0,7.2,[7.2],"['[""[\'hunt_et_al\']""]']"
3069,CC(C)Cc1ccc([C@@H](C)C(=O)NS(C)(=O)=O)cc1,O,0,0,4.7,[4.7],"['[""[\'hunt_et_al\']""]']"
3070,O=C(O)C(Br)(Br)Br,O,0,0,-0.147,[-0.147],"['[""[\'hunt_et_al\']""]']"
3071,C1CN=C2CCC[NH+]2C1,C1CCOC1,-,"3,4,5,6,7,8-hexahydro-2H-pyrrolo[1,2-a]pyrimidin-5-ium",17.2,[17.2],"['[""[\'Bases_pKa_values_MeCN_DMSO_THF_Water.pdf\']""]']"
3072,COc1ccc2c([NH3+])cccc2c1,O,0,0,3.9,[3.9],"['[""[\'hunt_et_al\']""]']"
3073,[O-][Cl+3]([O-])([O-])O,C1CCOC1,7601-90-3,perchloric acid,7.57,[7.57],"['[""[\'pKa_values_of_acids_and_bases_in_MeCN_DCE_DMSO_H2O_THF_C7_DME.pdf\']""]']"
3074,O=C(O)c1ccccc1Oc1ccccc1,O,0,0,3.53,[3.53],"['[""[\'hunt_et_al\']""]']"
3075,N#CC(c1c(F)c(F)c(C(F)(F)F)c(F)c1F)c1c(F)c(F)c(C(F)(F)F)c(F)c1F,O,58436-28-5,"2,2-bis[2,3,5,6-tetrafluoro-4-(trifluoromethyl)phenyl]acetonitrile",4.4,[4.4],"['[""[\'Ejoc202001649-sup-00001-misc_information.pdf\']""]']"
3076,Cc1cc([NH3+])ccc1[N+](=O)[O-],O,0,0,1.5,[1.5],"['[""[\'hunt_et_al\']""]']"
3077,C[NH2+]c1cccc(C)c1,O,0,0,5.0,[5.0],"['[""[\'hunt_et_al\']""]']"
3078,CC1(C)S[C@@H]2[C@H](NC(=O)[C@H](N)c3ccccc3)C(=O)N2[C@H]1C(=O)O,O,0,0,2.51,[2.51],"['[""[\'hunt_et_al\']""]']"
3079,CN1CC[NH+](CC(=O)N2c3ccccc3C(=O)Nc3cccnc32)CC1,O,0,0,7.88,[7.88],"['[""[\'hunt_et_al\']""]']"
3080,[NH3+]c1cccc2c(Cl)cccc12,O,0,0,3.34,[3.34],"['[""[\'hunt_et_al\']""]']"
3081,O=C(O)COc1ccc([N+](=O)[O-])cc1,O,0,0,2.893,[2.893],"['[""[\'hunt_et_al\']""]']"
3082,CS(=O)(=O)c1ccccc1[NH3+],O,0,0,0.33,[0.33],"['[""[\'hunt_et_al\']""]']"
3083,Cc1cc([NH3+])ccc1Br,O,0,0,4.05,[4.05],"['[""[\'hunt_et_al\']""]']"
3084,O=S(=O)(NS(=O)(=O)c1ccc(Cl)cc1)c1ccc(Cl)cc1,CN(C)C=O,2725-55-5,4-chloro-N-(4-chlorophenyl)sulfonylbenzenesulfonamide,3.46,[3.46],"['[""[\'Ejoc202001649-sup-00001-misc_information.pdf\']""]']"
3085,C[C@H]([NH3+])c1ccc(F)cc1,O,0,0,9.22,[9.22],"['[""[\'hunt_et_al\']""]']"
3086,O=[N+]([O-])c1ccc(O)c(Cl)c1,O,0,0,5.6,[5.6],"['[""[\'hunt_et_al\']""]']"
3087,C[C@@H](CN1c2ccccc2CCc2ccccc21)C[NH+](C)C,O,0,0,9.4,[9.4],"['[""[\'hunt_et_al\']""]']"
3088,CCCC[NH3+],CS(=O)C,-,butylazanium,11.1,[11.1],"['[""[\'Bases_pKa_values_MeCN_DMSO_THF_Water.pdf\']""]']"