,Solute SMILES,Solvent SMILES,Solute CAS,Solute IUPAC,pKa (avg),pKa (all),Source (all)
920,C[C@H]1CCC[C@@H](C)[NH+]1CC(C)(C)O,O,0,0,10.5,[10.5],"['[""[\'hunt_et_al\']""]']"
921,O=C(O)CCCCC(=O)O,O,0,0,4.43,[4.43],"['[""[\'hunt_et_al\']""]']"
922,O=C(O)c1cn(C2CC2)c2cc(N3CC[NH2+]CC3)c(F)cc2c1=O,O,0,0,7.35,"[6.13, 8.57]","['[""[\'hunt_et_al\']""]', '[""[\'hunt_et_al\']""]']"
923,Cc1cc(O)ccc1Cl,O,0,0,9.55,[9.55],"['[""[\'hunt_et_al\']""]']"
924,[NH3+]c1ccc(Br)c2ccccc12,O,0,0,3.21,[3.21],"['[""[\'hunt_et_al\']""]']"
925,O=S(=O)(N=C(NS(=O)(=O)C(F)(F)F)c1ccccc1)C(F)(F)F,C(CCl)Cl,500721-91-5,"N,N'-bis(trifluoromethylsulfonyl)benzenecarboximidamide",33.3,[33.3],"['[""[\'leito_acids\']""]']"
926,C[NH2+]C[C@H](O)c1ccc(O)cc1,O,0,0,9.6,[9.6],"['[""[\'hunt_et_al\']""]']"
927,COC(=O)c1ccc(C(F)(F)F)nc1S(=O)(=O)NC(=O)Nc1nc(OC)cc(OC)n1,O,0,0,4.9,[4.9],"['[""[\'hunt_et_al\']""]']"
928,N#CC(c1ccc(C(F)(F)F)cc1)c1c(F)c(F)c(F)c(F)c1F,CS(=O)C,42238-35-7,2-(perfluorophenyl)-2-(4-(trifluoromethyl)phenyl)acetonitrile,4.9,[4.9],"['[""[\'Ejoc202001649-sup-00001-misc_information.pdf\']""]']"
929,O=C(O)CCCCCCCC(=O)O,O,0,0,3.49,[3.49],"['[""[\'hunt_et_al\']""]']"
930,CC[NH+](CC)CCCCC(O)(c1ccccc1)c1ccccc1,O,0,0,10.08,[10.08],"['[""[\'hunt_et_al\']""]']"
931,O=C(O)c1ccccc1,CC#N,65-85-0,benzoic acid,21.506000000000004,"[21.51, 21.51, 21.5, 21.5, 21.51]","['[""[\'MeCN_Acids_COSMO-RS_2008_Table.pdf\', \'pKa_values_of_acids_and_bases_in_MeCN_DCE_DMSO_H2O_THF_C7_DME.pdf\', \'pKa_values_of_acids_in_acetonitrile.pdf\', \'Ejoc202001649-sup-00001-misc_information.pdf\', \'leito_acids\']""]']"
932,CCCSc1ccc2[nH+]c([N-]C(=O)OC)[nH]c2c1,O,0,0,10.5,[10.5],"['[""[\'hunt_et_al\']""]']"
933,Cc1ccc(C(C#N)C#N)cc1,CC#N,33534-88-2,2-(4-methylphenyl)propanedinitrile,17.583333333333332,"[17.59, 17.57, 17.59]","['[""[\'MeCN_Acids_COSMO-RS_2008_Table.pdf\', \'Ejoc202001649-sup-00001-misc_information.pdf\', \'leito_acids\']""]']"
934,Clc1ccc[nH+]c1,CC#N,,3-chloropyridin-1-ium,9.55,[9.55],"['[""[\'pKa_values_of_nitrogen_heterocycles.pdf\']""]']"
935,c1cnc2c(c1)ccc1ccc3ccc[nH+]c3c12,O,,,12.0,[12.0],"['[""[\'pKa_values_of_nitrogen_heterocycles.pdf\']""]']"
936,Cc1cc(C[N@@H+](CC(=O)Nc2ccc(Cl)cc2Cl)C2CCCCC2)ccc1OCC(=O)O,O,0,0,2.9,[2.9],"['[""[\'hunt_et_al\']""]']"
937,c1c[nH+][nH]n1,O,-,2H-triazol-1-ium,1.17,"[1.17, 1.17]","['[""[\'pKa_values_of_nitrogen_heterocycles.pdf\', \'Bases_pKa_values_MeCN_DMSO_THF_Water.pdf\']""]']"
938,CCc1cc(C(N)=S)cc[nH+]1,O,0,0,4.4,[4.4],"['[""[\'hunt_et_al\']""]']"
939,ClCC[NH+](CCCl)CCCl,O,0,0,4.37,[4.37],"['[""[\'hunt_et_al\']""]']"
940,Cc1c(C(=O)O)cc([N+](=O)[O-])cc1[N+](=O)[O-],O,0,0,2.97,[2.97],"['[""[\'hunt_et_al\']""]']"
941,CCS(=O)(=O)c1cccnc1S(=O)(=O)NC(=O)Nc1nc(OC)cc(OC)n1,O,0,0,4.0,[4.0],"['[""[\'hunt_et_al\']""]']"
942,[NH3+]c1ccc(CC(=O)O)cc1,O,0,0,4.43,"[5.26, 3.6]","['[""[\'hunt_et_al\']""]', '[""[\'hunt_et_al\']""]']"
943,CCC(C)([NH3+])CC,O,0,0,10.63,[10.63],"['[""[\'hunt_et_al\']""]']"
944,O=[N+]([O-])c1cc([N+](=O)[O-])c(O)c([N+](=O)[O-])c1,CN(C)C=O,88-89-1,"2,4,6-trinitrophenol",1.1,[1.1],"['[""[\'Ejoc202001649-sup-00001-misc_information.pdf\']""]']"
945,O=S(=O)(OCC(F)(F)CF)c1cc(S(=O)(=O)OCC(F)(F)CF)c(O)c(S(=O)(=O)OCC(F)(F)CF)c1,CC#N,1263293-54-4,,8.155000000000001,"[8.14, 8.17]","['[""[\'Ejoc202001649-sup-00001-misc_information.pdf\', \'leito_acids\']""]']"
946,[NH3+]c1ccc2cccc([N+](=O)[O-])c2c1,O,0,0,2.73,[2.73],"['[""[\'hunt_et_al\']""]']"
947,C[C@@H]([NH3+])Cc1ccccc1,O,0,0,9.94,[9.94],"['[""[\'hunt_et_al\']""]']"
948,c1cncc(CC[NH+]2CCCC2)c1,O,0,0,9.28,[9.28],"['[""[\'hunt_et_al\']""]']"
949,Oc1cncc2cccnc12,O,0,0,8.35,[8.35],"['[""[\'hunt_et_al\']""]']"
950,C1C[NH+]2CCC1CC2,CS(=O)C,-,1-azoniabicyclo[2.2.2]octane,9.8,[9.8],"['[""[\'Bases_pKa_values_MeCN_DMSO_THF_Water.pdf\']""]']"
951,Fc1c(F)c(F)c(Nc2c(F)c(F)c(F)c(F)c2F)c(F)c1F,CS(=O)C,1535-92-8,"2,3,4,5,6-pentafluoro-N-(2,3,4,5,6-pentafluorophenyl)aniline",11.6,[11.6],"['[""[\'Ejoc202001649-sup-00001-misc_information.pdf\']""]']"
952,O=C(O)c1cccc2cccc(C(=O)O)c12,CC#N,518-05-8,"naphthalene-1,8-dicarboxylic acid",21.8,[21.8],"['[""[\'MeCN_Acids_COSMO-RS_2008_Table.pdf\']""]']"
953,CN1CCN(C2=c3ccccc3=[NH+]c3ccc(Cl)cc3N2)CC1,O,0,0,7.5,[7.5],"['[""[\'hunt_et_al\']""]']"
954,O=C1C(O)=C(Oc2ccccc2)C(=O)C(O)=C1Oc1ccccc1,O,0,0,2.0,[2.0],"['[""[\'hunt_et_al\']""]']"
955,Cc1cccc(O)c1,O,0,0,10.09,[10.09],"['[""[\'hunt_et_al\']""]']"
956,C[C@@H]([NH3+])Cc1ccc(O)cc1,O,0,0,9.7,[9.7],"['[""[\'hunt_et_al\']""]']"
957,C1C[NH2+]C1,O,0,0,11.3,[11.3],"['[""[\'hunt_et_al\']""]']"
958,C=CC[NH3+],O,0,0,9.49,[9.49],"['[""[\'hunt_et_al\']""]']"
959,Cc1cccc(S)c1,O,0,0,6.66,[6.66],"['[""[\'hunt_et_al\']""]']"
960,CN(C)[P+](NC(C)(C)C)(N(C)C)N(C)C,O,-,(tert-butylamino)-tris(dimethylamino)phosphanium,17.0,[17.0],"['[""[\'Bases_pKa_values_MeCN_DMSO_THF_Water.pdf\']""]']"
961,C1C[NH2+]1,O,0,0,8.0,[8.0],"['[""[\'hunt_et_al\']""]']"
962,N#CCc1ccc([N+](=O)[O-])cc1,CC#N,555-21-5,2-(4-nitrophenyl)acetonitrile,25.4,[25.4],"['[""[\'MeCN_Acids_COSMO-RS_2008_Table.pdf\']""]']"
963,C[n+]1cccc2cc(O)ccc21,O,0,0,7.12,[7.12],"['[""[\'hunt_et_al\']""]']"
964,CC=CC=CC(=O)O,O,110-44-1,"hexa-2,4-dienoic acid",4.5,[4.5],"['[""[\'Ejoc202001649-sup-00001-misc_information.pdf\']""]']"
965,[NH3+]CCCCCCBr,O,0,0,10.6,[10.6],"['[""[\'hunt_et_al\']""]']"
966,O=S(=O)(c1cc(S(=O)(=O)C(F)(F)F)c(O)c(S(=O)(=O)C(F)(F)F)c1)C(F)(F)F,CC#N,71571-37-4,"2,4,6-tris(trifluoromethylsulfonyl)phenol",4.5200000000000005,"[4.48, 4.48, 4.44, 4.48, 4.8, 4.44]","['[""[\'DCE_2011_pKa_Table_MeCN.pdf\', \'a_unified_view_to_bronsted_acidity_scales.pdf\', \'pKa_values_of_acids_in_acetonitrile.pdf\', \'leito_acids\']"", ""[\'MeCN_Acids_COSMO-RS_2008_Table.pdf\', \'Ejoc202001649-sup-00001-misc_information.pdf\']""]']"
967,Oc1ccc(C(F)(F)F)cc1,O,402-45-9,4-(trifluoromethyl)phenol,8.6775,"[8.68, 8.675]","['[""[\'Ejoc202001649-sup-00001-misc_information.pdf\']""]', '[""[\'hunt_et_al\']""]']"
968,O=C(NCC12CC3CC(CC(C3)C1)C2)c1cc(OC2CC[NH2+]CC2)ccc1Cl,O,0,0,9.0,[9.0],"['[""[\'hunt_et_al\']""]']"
969,Clc1ccc(/C=[NH+]/c2ccccc2)cc1,O,0,0,2.8,[2.8],"['[""[\'hunt_et_al\']""]']"
970,[NH3+]CC1CCCCC1,O,0,0,10.49,[10.49],"['[""[\'hunt_et_al\']""]']"
971,CC[NH+](CC)c1ccc([N+](=O)[O-])cc1,O,0,0,1.75,[1.75],"['[""[\'hunt_et_al\']""]']"
972,[NH3+]c1ccccc1C=O,O,0,0,1.36,[1.36],"['[""[\'hunt_et_al\']""]']"
973,CCOC(=O)N1CC[NH+](C)CC1,O,0,0,7.31,[7.31],"['[""[\'hunt_et_al\']""]']"
974,CC[NH2+]CCC(=O)C(c1ccccc1)c1ccccc1,O,0,0,9.55,[9.55],"['[""[\'hunt_et_al\']""]']"
975,O=[N+]([O-])c1ccccc1O,O,0,0,7.215,"[7.21, 7.22]","['[""[\'hunt_et_al\']""]', '[""[\'Ejoc202001649-sup-00001-misc_information.pdf\']""]']"
976,Cc1ccc([NH3+])cc1Cl,O,0,0,4.05,[4.05],"['[""[\'hunt_et_al\']""]']"
977,c1ccc2[nH+]c3ccccc3cc2c1,O,-,acridin-10-ium,5.62,"[5.62, 5.62]","['[""[\'pKa_values_of_nitrogen_heterocycles.pdf\', \'Bases_pKa_values_MeCN_DMSO_THF_Water.pdf\']""]']"
978,CCC([NH3+])CC,O,0,0,10.42,[10.42],"['[""[\'hunt_et_al\']""]']"
979,Nc1[nH]ncc1-c1cc(Cl)ccc1Oc1cc(F)c(S(=O)(=O)Nc2cscn2)cc1Cl,O,0,0,6.2,[6.2],"['[""[\'hunt_et_al\']""]']"
980,Cc1ccc(N)[nH+]c1,O,0,0,7.22,[7.22],"['[""[\'hunt_et_al\']""]']"
981,CC[NH+](CC)CCOC(=O)c1ccc([NH3+])cc1,O,0,0,2.0,[2.0],"['[""[\'hunt_et_al\']""]']"
982,C[NH+]1CCCCC1,C1CCOC1,-,1-methylpiperidin-1-ium,12.9,[12.9],"['[""[\'Bases_pKa_values_MeCN_DMSO_THF_Water.pdf\']""]']"
983,C[C@H](C(=O)O)c1ccc(-c2ccccc2)c(F)c1,O,0,0,4.2,[4.2],"['[""[\'hunt_et_al\']""]']"
984,CS(=O)(=O)c1ccc(C(=O)O)cc1,O,0,0,3.64,[3.64],"['[""[\'hunt_et_al\']""]']"
985,ClCC[NH+](CCCl)c1cc(Cl)cc2c1OCOC2,O,0,0,6.9,[6.9],"['[""[\'hunt_et_al\']""]']"
986,N[NH3+],CS(=O)C,18500-32-8,aminoazanium,10.1,[10.1],"['[""[\'Bases_pKa_values_MeCN_DMSO_THF_Water.pdf\']""]']"
987,CC[NH+](C)CC,CC#N,-,diethyl(methyl)azanium,18.2,[18.2],"['[""[\'Bases_pKa_values_MeCN_DMSO_THF_Water.pdf\']""]']"
988,CC(C)(C)[NH2+]c1ccc(Br)cc1,O,0,0,5.93,[5.93],"['[""[\'hunt_et_al\']""]']"
989,Oc1ccccc1/N=N/c1ccccc1O,O,0,0,7.8,[7.8],"['[""[\'hunt_et_al\']""]']"
990,c1ccc2[nH+]c[nH]c2c1,CC#N,-,1H-benzimidazol-3-ium,13.53,"[13.52, 13.54]","['[""[\'pKa_values_of_nitrogen_heterocycles.pdf\', \'Bases_pKa_values_MeCN_DMSO_THF_Water.pdf\']""]']"
991,C1CCC([NH2+]C2CCCCC2)CC1,O,0,0,11.25,[11.25],"['[""[\'hunt_et_al\']""]']"
992,Cc1cc(O)ncn1,O,0,0,9.1,[9.1],"['[""[\'hunt_et_al\']""]']"
993,O=Cc1cccc(O)c1,O,0,0,9.0,[9.0],"['[""[\'hunt_et_al\']""]']"
994,O=C1C=C[NH2+]C(=O)N1,O,,"1H-pyrimidin-1-ium-2,4-dione",0.5,[0.5],"['[""[\'pKa_values_of_nitrogen_heterocycles.pdf\']""]']"
995,CCn1cc(C(=O)[O-])c(=O)c2cc(F)c(N3CC[NH2+][C@H](C)C3)c(F)c21,O,0,0,8.87,[8.87],"['[""[\'hunt_et_al\']""]']"
996,Cc1csc(C(=O)O)n1,O,0,0,3.18,[3.18],"['[""[\'hunt_et_al\']""]']"
997,NS(=O)(=O)c1ccc(C[NH3+])cc1,O,0,0,8.52,[8.52],"['[""[\'hunt_et_al\']""]']"
998,NS(=O)(=O)c1cccc(Cl)c1,CC#N,17260-71-8,3-chlorobenzenesulfonamide,23.8,[23.8],"['[""[\'MeCN_Acids_COSMO-RS_2008_Table.pdf\']""]']"
999,O=C(O)COc1ccc(F)cc1,O,0,0,3.56,[3.56],"['[""[\'hunt_et_al\']""]']"
1000,Cc1ccccc1C(=[NH2+])c1ccccc1,O,0,0,6.79,[6.79],"['[""[\'hunt_et_al\']""]']"
1001,O=[N+]([O-])c1ccc(O/N=C/c2cc(Br)c(O)c(Br)c2)c([N+](=O)[O-])c1,O,0,0,5.46,[5.46],"['[""[\'hunt_et_al\']""]']"
1002,O=C(O)C=CC(=O)O,CC#N,26099-09-2,but-2-enedioic acid,19.2,[19.2],"['[""[\'MeCN_Acids_COSMO-RS_2008_Table.pdf\']""]']"
1003,[NH3+]c1cccc(Br)c1,O,0,0,3.58,[3.58],"['[""[\'hunt_et_al\']""]']"
1004,COc1nc(C)cc(O)n1,O,0,0,8.5,[8.5],"['[""[\'hunt_et_al\']""]']"
1005,Nc1ccc([NH3+])nc1,O,0,0,6.48,[6.48],"['[""[\'hunt_et_al\']""]']"
1006,Cc1ccc(S(=O)(=O)O)cc1,CC#N,104-15-4,4-methylbenzenesulfonic acid,8.41,"[8.45, 8.01, 8.5, 8.5, 8.5, 8.5]","['[""[\'MeCN_Acids_COSMO-RS_2008_Table.pdf\', \'MeCN_Acids_COSMO-RS_2008_Table.pdf\', \'DCE_2011_pKa_Table_MeCN.pdf\', \'pKa_values_of_acids_in_acetonitrile.pdf\', \'Ejoc202001649-sup-00001-misc_information.pdf\', \'leito_acids\']""]']"
1007,C[C@H](Oc1ccc(Oc2ncc(C(F)(F)F)cc2Cl)cc1)C(=O)O,O,0,0,2.9,[2.9],"['[""[\'hunt_et_al\']""]']"
1008,C1CCC2=NCCC[NH+]2CC1,O,-,"3,4,5,6,7,8,9,10-octahydro-2H-pyrimido[1,2-a]azepin-5-ium",13.5,[13.5],"['[""[\'Bases_pKa_values_MeCN_DMSO_THF_Water.pdf\']""]']"
1009,Cc1ccc(S(=O)(=O)Nc2c(C(=O)N[C@@H](C)C(C)(C)C)c(C)nn2C(C)(C)C)cc1,O,0,0,5.5,[5.5],"['[""[\'hunt_et_al\']""]']"
1010,C[NH2+]C[C@H](O)c1ccc(O)c(O)c1,O,0,0,8.71,[8.71],"['[""[\'hunt_et_al\']""]']"
1011,[NH3+][C@@H]1CCc2ccccc2C1,O,0,0,9.93,[9.93],"['[""[\'hunt_et_al\']""]']"
1012,O=C(O)COc1cc(Cl)c(Cl)cc1Cl,O,0,0,2.85,[2.85],"['[""[\'hunt_et_al\']""]']"
1013,[NH3+]c1cc(Br)cc2ccccc12,O,0,0,2.67,[2.67],"['[""[\'hunt_et_al\']""]']"
1014,[NH3+]c1cc(Cl)c(Cl)cc1Cl,O,0,0,1.09,[1.09],"['[""[\'hunt_et_al\']""]']"
1015,O=[N+]([O-])c1ccc([NH2+]Cc2ccc(F)cc2)c([N+](=O)[O-])c1,O,0,0,-4.99,[-4.99],"['[""[\'hunt_et_al\']""]']"
1016,C[N@@H+](c1ccccc1)C1CCCC1,O,0,0,6.71,[6.71],"['[""[\'hunt_et_al\']""]']"
1017,O=C1c2ccccc2C(=O)c2c1cccc2S(=O)(=O)O,O,0,0,0.268,[0.268],"['[""[\'hunt_et_al\']""]']"
1018,O=C(O)c1cc(Cl)ccc1O,O,0,0,2.63,[2.63],"['[""[\'hunt_et_al\']""]']"
1019,Oc1nncc2ccccc12,O,0,0,11.99,[11.99],"['[""[\'hunt_et_al\']""]']"
1020,O=Cc1ccc(O)cc1,O,0,0,7.62,[7.62],"['[""[\'hunt_et_al\']""]']"
1021,[NH3+]c1cc(Cl)cc2ccccc12,O,0,0,2.69,[2.69],"['[""[\'hunt_et_al\']""]']"
1022,O=S(=O)(O)C(F)(F)F,C(CCl)Cl,1493-13-6,trifluoromethanesulfonic acid,33.7,"[33.7, 33.7]","['[""[\'pKa_values_of_acids_and_bases_in_MeCN_DCE_DMSO_H2O_THF_C7_DME.pdf\', \'leito_acids\']""]']"
1023,N#Cc1cccc(C(=O)O)c1,O,0,0,3.598,[3.598],"['[""[\'hunt_et_al\']""]']"
1024,Nc1nc(-c2ccccn2)[nH+]c(N)c1Cc1ccc(Cl)cc1Cl,O,0,0,5.58,[5.58],"['[""[\'hunt_et_al\']""]']"
1025,CCCc1cccc(CCC)c1O,O,0,0,11.25,[11.25],"['[""[\'hunt_et_al\']""]']"
1026,CCOC(=O)C(C#N)c1c(F)c(F)nc(F)c1F,CS(=O)C,55810-61-2,"ethyl 2-cyano-2-(2,3,5,6-tetrafluoropyridin-4-yl)acetate",3.2,"[3.2, 3.2]","['[""[\'a_unified_view_to_bronsted_acidity_scales.pdf\']"", ""[\'Ejoc202001649-sup-00001-misc_information.pdf\']""]']"
1027,C1CC[C@H]2[NH2+]CCC[C@H]2C1,O,0,0,11.29,[11.29],"['[""[\'hunt_et_al\']""]']"
1028,c1ccc(CSc2[nH]c3ccccc3[nH+]2)cc1,O,0,0,4.2,[4.2],"['[""[\'hunt_et_al\']""]']"
1029,O=C(O)c1ccc([N+](=O)[O-])cc1Cl,O,0,0,1.96,[1.96],"['[""[\'hunt_et_al\']""]']"
1030,O=C(O)CO,O,0,0,3.83,[3.83],"['[""[\'hunt_et_al\']""]']"
1031,O=C(O)c1ccc(O)c2ncccc12,O,0,0,4.8,[4.8],"['[""[\'hunt_et_al\']""]']"
1032,O=C(O)Cc1cccc(I)c1,O,0,0,4.16,[4.16],"['[""[\'hunt_et_al\']""]']"
1033,Cc1cccc[nH+]1,CC#N,,2-methylpyridin-1-ium,13.32,[13.32],"['[""[\'pKa_values_of_nitrogen_heterocycles.pdf\']""]']"
1034,O=C(O)c1cccc(Br)c1CO,O,0,0,3.28,[3.28],"['[""[\'hunt_et_al\']""]']"
1035,C#CC[NH+](CC)CC,O,0,0,7.97,[7.97],"['[""[\'hunt_et_al\']""]']"
1036,N#CC1c2ccccc2-c2ccccc21,O,1529-40-4,9H-fluorene-9-carbonitrile,10.7,[10.7],"['[""[\'Ejoc202001649-sup-00001-misc_information.pdf\']""]']"
1037,Nc1ccccc1S,O,0,0,6.59,[6.59],"['[""[\'hunt_et_al\']""]']"
1038,NCCCC[NH3+],CC#N,-,4-aminobutylazanium,20.12,[20.12],"['[""[\'Bases_pKa_values_MeCN_DMSO_THF_Water.pdf\']""]']"
1039,[NH3+]c1ccc(Sc2ccccc2)cc1,O,0,0,3.8,[3.8],"['[""[\'hunt_et_al\']""]']"
1040,C[NH+](C)Cc1cccc([N+](=O)[O-])c1,O,0,0,8.2,[8.2],"['[""[\'hunt_et_al\']""]']"
1041,OC(C(F)(F)F)(C(F)(F)F)C(F)(F)F,O,1/2/78,"1,1,1,3,3,3-hexafluoro-2-(trifluoromethyl)propan-2-ol",5.33,[5.33],"['[""[\'Ejoc202001649-sup-00001-misc_information.pdf\']""]']"
1042,CC(C)[NH2+]C[C@@H](O)COc1cccc2ccccc12,O,0,0,9.524999999999999,"[9.6, 9.45]","['[""[\'hunt_et_al\']"", ""[\'hunt_et_al\']""]']"
1043,CC(C)[NH2+]C[C@@H](O)COc1ccc(CC(N)=O)cc1,O,0,0,9.6,"[9.6, 9.6]","['[""[\'hunt_et_al\']"", ""[\'hunt_et_al\']""]']"
1044,CCCCCC[N@@H+](CCO)C[C@@H](O)CC,O,0,0,9.0,[9.0],"['[""[\'hunt_et_al\']""]']"
1045,Cc1ccccc1S,O,0,0,6.64,[6.64],"['[""[\'hunt_et_al\']""]']"
1046,[NH3+]c1c(F)c(F)c(F)c(F)c1F,O,0,0,-0.28,[-0.28],"['[""[\'hunt_et_al\']""]']"
1047,CC1=C(C)C(C)(C)[NH+](C)C1(C)C,O,0,0,10.8,[10.8],"['[""[\'hunt_et_al\']""]']"
1048,C[N@@H+](c1ccccc1)C1CCCCC1,O,0,0,6.35,[6.35],"['[""[\'hunt_et_al\']""]']"
1049,C[NH2+]C,C1CCOC1,49784-85-2,dimethylazanium,13.3,[13.3],"['[""[\'Bases_pKa_values_MeCN_DMSO_THF_Water.pdf\']""]']"
1050,OCC[NH+](CCO)CCO,O,0,0,7.762,[7.762],"['[""[\'hunt_et_al\']""]']"
1051,CSc1cccc(O)c1,O,0,0,9.53,[9.53],"['[""[\'hunt_et_al\']""]']"
1052,[NH3+][C@H](Cc1c[nH]c2ccccc12)C(=O)[O-],O,0,0,9.1,[9.1],"['[""[\'hunt_et_al\']""]']"
1053,Cc1cc(C)nc(NC(=O)NS(=O)(=O)c2ccccc2C(=O)OC2COC2)n1,O,0,0,5.1,[5.1],"['[""[\'hunt_et_al\']""]']"
1054,O=C(O)/C=C/c1ccc(Cl)cc1,O,0,0,4.41,[4.41],"['[""[\'hunt_et_al\']""]']"
1055,N#CC(c1c(F)c(F)c2c(F)c(F)c(F)c(F)c2c1F)c1c(F)c(F)c2c(F)c(F)c(F)c(F)c2c1F,CC#N,62325-38-6,"2,2-bis(1,3,4,5,6,7,8-heptafluoronaphthalen-2-yl)acetonitrile",19.319999999999997,"[19.32, 19.32, 19.32, 19.32, 19.32, 19.32]","['[""[\'MeCN_Acids_COSMO-RS_2008_Table.pdf\', \'pKa_values_of_acids_and_bases_in_MeCN_DCE_DMSO_H2O_THF_C7_DME.pdf\', \'a_unified_view_to_bronsted_acidity_scales.pdf\', \'pKa_values_of_acids_in_acetonitrile.pdf\', \'Ejoc202001649-sup-00001-misc_information.pdf\', \'leito_acids\']""]']"
1056,CCC[C@@H]1CCC[N@H+]1C,O,0,0,9.78,[9.78],"['[""[\'hunt_et_al\']""]']"
1057,[NH3+]c1cc2ccccc2cc1[N+](=O)[O-],O,0,0,1.48,[1.48],"['[""[\'hunt_et_al\']""]']"
1058,C[C@@H]([NH2+]C(C)(C)C)C(=O)c1cccc(Cl)c1,O,0,0,8.4,[8.4],"['[""[\'hunt_et_al\']""]']"
1059,NCC[NH3+],O,-,2-aminoethylazanium,9.98,[9.98],"['[""[\'Bases_pKa_values_MeCN_DMSO_THF_Water.pdf\']""]']"
1060,COCC(=O)O,O,0,0,3.57,[3.57],"['[""[\'hunt_et_al\']""]']"
1061,C1CC[NH2+]CC1,O,0,0,11.16,"[11.1, 11.22]","['[""[\'hunt_et_al\']""]', '[""[\'Bases_pKa_values_MeCN_DMSO_THF_Water.pdf\']""]']"
1062,CCCc1ccc(O)c2ncccc12,O,0,0,9.7,[9.7],"['[""[\'hunt_et_al\']""]']"
1063,COC(=O)c1cccc([NH3+])c1,O,0,0,3.55,[3.55],"['[""[\'hunt_et_al\']""]']"
1064,C[NH+](C)C(C)(C)C,O,0,0,10.29,[10.29],"['[""[\'hunt_et_al\']""]']"
1065,CCOC(=O)c1ccccc1S(=O)(=O)NC(=O)Nc1nc(Cl)cc(OC)n1,O,0,0,4.2,[4.2],"['[""[\'hunt_et_al\']""]']"
1066,[NH3+]CCBr,O,0,0,8.49,[8.49],"['[""[\'hunt_et_al\']""]']"
1067,C[NH2+]c1c(C)cc(C)cc1C,O,0,0,5.47,[5.47],"['[""[\'hunt_et_al\']""]']"
1068,O=S(=O)(O)c1cccc2ccccc12,O,0,0,0.16,[0.16],"['[""[\'hunt_et_al\']""]']"
1069,O=C(O)CCCCC(=O)O,CC#N,124-04-9,hexanedioic acid,20.3,[20.3],"['[""[\'MeCN_Acids_COSMO-RS_2008_Table.pdf\']""]']"
1070,Cc1ccc([NH+](C)C)c(C)c1,O,0,0,5.28,[5.28],"['[""[\'hunt_et_al\']""]']"
1071,[NH3+]c1cc([N+](=O)[O-])ccc1Br,O,0,0,0.52,[0.52],"['[""[\'hunt_et_al\']""]']"
1072,COc1cccc(C[NH3+])c1OC,O,0,0,9.41,[9.41],"['[""[\'hunt_et_al\']""]']"
1073,O=[N+]([O-])C1=CN=C[NH2+]1,O,,5-nitro-1H-imidazol-3-ium,-0.16,[-0.16],"['[""[\'pKa_values_of_nitrogen_heterocycles.pdf\']""]']"
1074,CC(C)Cc1ccc([C@H](C)C(=O)O)cc1,O,0,0,5.2,[5.2],"['[""[\'hunt_et_al\']""]']"
1075,N#CC(c1c(F)c(F)c(C(F)(F)F)c(F)c1F)c1c(F)c(F)c(C(F)(F)F)c(F)c1F,CC#N,58432-55-6,"2,2-bis[2,3,5,6-tetrafluoro-4-(trifluoromethyl)phenyl]acetonitrile",16.125,"[16.12, 16.13, 16.13, 16.12]","['[""[\'pKa_values_of_acids_in_acetonitrile.pdf\', \'leito_acids\']"", ""[\'MeCN_Acids_COSMO-RS_2008_Table.pdf\', \'Ejoc202001649-sup-00001-misc_information.pdf\']""]']"
1076,O=C([O-])[C@H](c1ccccc1)N1CCC([NH+]2CCC(Oc3ccc(Cl)c(Cl)c3)CC2)CC1,O,0,0,9.1,[9.1],"['[""[\'hunt_et_al\']""]']"
1077,C[C@H]([C@@H](O)c1ccccc1)[NH+](C)C,O,0,0,9.2,[9.2],"['[""[\'hunt_et_al\']""]']"
1078,CC(C)[NH2+]C[C@H](O)c1ccccc1[N+](=O)[O-],O,0,0,9.35,[9.35],"['[""[\'hunt_et_al\']""]']"
1079,O=C(O)c1cccc([N+](=O)[O-])c1[N+](=O)[O-],O,0,0,1.85,[1.85],"['[""[\'hunt_et_al\']""]']"
1080,O=S(=O)(Nc1ccccc1)c1ccc(Cl)cc1,O,0,0,7.98,[7.98],"['[""[\'hunt_et_al\']""]']"
1081,CC(C)[NH+](C)C,O,0,0,10.47,[10.47],"['[""[\'hunt_et_al\']""]']"
1082,CN(C)CCC[NH+](C)C,CS(=O)C,-,3-(dimethylamino)propyl-dimethylazanium,9.4,[9.4],"['[""[\'Bases_pKa_values_MeCN_DMSO_THF_Water.pdf\']""]']"
1083,N#Cc1cn(Cc2ccco2)c(=O)[nH]c1=O,O,0,0,6.1,[6.1],"['[""[\'hunt_et_al\']""]']"
1084,CCn1cc(C(=O)[O-])c(=O)c2cc(F)c(N3CC[NH+](C)CC3)cc21,O,0,0,7.55,[7.55],"['[""[\'hunt_et_al\']""]']"
1085,C[NH+]=C1CCCCC1,O,0,0,9.43,[9.43],"['[""[\'hunt_et_al\']""]']"
1086,NS(=O)(=O)c1ccc(Cl)cc1,CC#N,98-64-6,4-chlorobenzenesulfonamide,25.85,[25.85],"['[""[\'Ejoc202001649-sup-00001-misc_information.pdf\']""]']"
1087,COC(=O)c1cccc([NH+](C)C)c1,O,0,0,3.86,[3.86],"['[""[\'hunt_et_al\']""]']"
1088,CN1CC[NH+](C)CC1,O,-,"1,4-dimethylpiperazin-1-ium",8.54,[8.54],"['[""[\'Bases_pKa_values_MeCN_DMSO_THF_Water.pdf\']""]']"
1089,Oc1c(F)c(F)c(F)c(F)c1F,O,771-61-9,"2,3,4,5,6-pentafluorophenol",5.574999999999999,"[5.55, 5.6]","['[""[\'Ejoc202001649-sup-00001-misc_information.pdf\']""]', '[""[\'hunt_et_al\']""]']"
1090,C[C@H]1CCC[C@@H](C)[NH+]1C,O,0,0,10.15,[10.15],"['[""[\'hunt_et_al\']""]']"
1091,Fc1c(F)c(F)c2c(c1F)Cc1c(F)c(F)c(F)c(F)c1-2,CC#N,27053-34-5,"1,2,3,4,5,6,7,8-octafluoro-9H-fluorene",24.49,"[24.49, 24.49, 24.49, 24.49]","['[""[\'MeCN_Acids_COSMO-RS_2008_Table.pdf\', \'pKa_values_of_acids_in_acetonitrile.pdf\', \'Ejoc202001649-sup-00001-misc_information.pdf\', \'leito_acids\']""]']"
1092,c1ccc(SCc2cccc[nH+]2)cc1,O,0,0,3.8,[3.8],"['[""[\'hunt_et_al\']""]']"
1093,C[NH+](C)CC/C=C1\c2ccccc2COc2ccccc21,O,0,0,8.0,[8.0],"['[""[\'hunt_et_al\']""]']"
1094,O=[N+]([O-])c1ccc(S(=O)(=O)O)c([N+](=O)[O-])c1,CC#N,89-02-1,"2,4-dinitrobenzenesulfonic acid",3.9800000000000004,"[3.99, 3.96, 3.99]","['[""[\'DCE_2011_pKa_Table_MeCN.pdf\', \'Ejoc202001649-sup-00001-misc_information.pdf\', \'leito_acids\']""]']"
1095,CCC[NH2+]C[C@@H](O)COc1ccccc1C(=O)CCc1ccccc1,O,0,0,9.27,[9.27],"['[""[\'hunt_et_al\']""]']"
1096,Oc1nccc2cccnc12,O,0,0,12.04,[12.04],"['[""[\'hunt_et_al\']""]']"
1097,O=[N+]([O-])c1cc([N+](=O)[O-])c(O)c([N+](=O)[O-])c1,C1CCOC1,88-89-1,"2,4,6-trinitrophenol",11.84,[11.84],"['[""[\'pKa_values_of_acids_and_bases_in_MeCN_DCE_DMSO_H2O_THF_C7_DME.pdf\']""]']"
1098,[O-][Cl+3]([O-])([O-])O,C(CCl)Cl,7601-90-3,perchloric acid,32.2,"[32.2, 32.2]","['[""[\'pKa_values_of_acids_and_bases_in_MeCN_DCE_DMSO_H2O_THF_C7_DME.pdf\', \'leito_acids\']""]']"
1099,[NH3+]c1ccc(Br)cc1[N+](=O)[O-],O,0,0,-1.05,[-1.05],"['[""[\'hunt_et_al\']""]']"
1100,CC(C)S(=O)(=O)c1ccc([NH3+])cc1,O,0,0,1.4,[1.4],"['[""[\'hunt_et_al\']""]']"
1101,CS,O,0,0,10.33,[10.33],"['[""[\'hunt_et_al\']""]']"
1102,C[NH+](C)c1c(Cl)cc([N+](=O)[O-])cc1Cl,O,0,0,-0.23,[-0.23],"['[""[\'hunt_et_al\']""]']"