,Solute SMILES,Solvent SMILES,Solute CAS,Solute IUPAC,pKa (avg),pKa (all),Source (all)
1141,O=S(=O)(O)O,C(CCl)Cl,7664-93-9,sulfuric acid,42.8,"[42.8, 42.8]","[""['Ejoc202001649-sup-00001-misc_information.pdf', 'leito_acids']""]"
1142,CN(C)CCCC[NH+](C)C,CC#N,-,4-(dimethylamino)butyl-dimethylazanium,19.96,[19.96],"[""['Bases_pKa_values_MeCN_DMSO_THF_Water.pdf']""]"
1143,C1CCC2=NCCC[NH+]2CC1,CC#N,-,"3,4,5,6,7,8,9,10-octahydro-2H-pyrimido[1,2-a]azepin-5-ium",24.325,"[24.34, 24.31]","[""['pKa_values_of_acids_and_bases_in_MeCN_DCE_DMSO_H2O_THF_C7_DME.pdf', 'Bases_pKa_values_MeCN_DMSO_THF_Water.pdf']""]"
1144,c1ccc(CCC[NH3+:10])cc1,O,0,0,10.16,[10.16],"[""['hunt_et_al']""]"
1145,Cc1nnc(C(C)C)n1C1C[C@@H]2CC[C@H](C1)[NH+:33]2CC[C@H](NC(=O)C1CCC(F)(F)CC1)c1ccccc1,O,0,0,9.66,[9.66],"[""['hunt_et_al']""]"
1146,COC(=O)CCC[NH3+:6],O,0,0,9.838,[9.838],"[""['hunt_et_al']""]"
1147,CC(=O)Oc1c[nH]c2ccccc12,CC#N,608-08-2,1H-indol-3-yl acetate,29.97,"[29.97, 29.97]","[""['pKa_values_of_acids_in_acetonitrile.pdf', 'Ejoc202001649-sup-00001-misc_information.pdf']""]"
1148,Cc1c(C#N)c(C#N)c(C#N)c(C#N)c1C#N,CS(=O)C,1213-77-0,"6-methylbenzene-1,2,3,4,5-pentacarbonitrile",8.2,[8.2],"[""['Ejoc202001649-sup-00001-misc_information.pdf']""]"
1149,C=CC[NH+:8]1CCOCC1,O,0,0,7.02,[7.02],"[""['hunt_et_al']""]"
1150,Clc1ccc([OH:11])c2ncccc12,O,0,0,9.05,[9.05],"[""['hunt_et_al']""]"
1151,Cc1ccc([NH3+:8])cc1Br,O,0,0,3.98,[3.98],"[""['hunt_et_al']""]"
1152,C[C@H](Cc1ccccc1)[NH2+:14]CCC#N,O,0,0,7.23,[7.23],"[""['hunt_et_al']""]"
1153,CSc1ccc([OH:8])cc1,O,0,0,9.53,[9.53],"[""['hunt_et_al']""]"
1154,CC1(C)CC(O)CC(C)(C)[NH2+:10]1,O,0,0,10.05,[10.05],"[""['hunt_et_al']""]"
1155,CC[NH+:7](CC)CCCl,O,0,0,8.8,[8.8],"[""['hunt_et_al']""]"
1156,c1ccc2c([NH3+:11])cccc2c1,O,0,0,3.92,[3.92],"[""['hunt_et_al']""]"
1157,O=S(=O)(c1cccc2ccccc12)[OH:13],O,0,0,0.16,[0.16],"[""['hunt_et_al']""]"
1158,Oc1ccc2c(c1O)CC[C@@H]([NH3+:11])C2,O,0,0,10.5,[10.5],"[""['hunt_et_al']""]"
1159,COc1c(N2CC[NH2+:20][C@H](C)C2)c(F)cc2c(=O)c(C(=O)[O-])cn(C3CC3)c12,O,0,0,9.18,[9.18],"[""['hunt_et_al']""]"
1160,COCCC[NH+:7](C)C,O,0,0,9.4,[9.4],"[""['hunt_et_al']""]"
1161,CCCCCCCC[NH+:15](C[C@@H](C)O)C[C@@H](C)O,O,0,0,8.3,[8.3],"[""['hunt_et_al']""]"
1162,CC[P@@H](=O)[OH:4],O,0,0,3.29,[3.29],"[""['hunt_et_al']""]"
1163,CCCCC[NH3+:6],O,0,0,10.63,[10.63],"[""['hunt_et_al']""]"
1164,O=[N+]([O-])c1cc(O)cc([N+](=O)[O-])c1,CC#N,586-11-8,"3,5-dinitrophenol",20.5,[20.5],"[""['MeCN_Acids_COSMO-RS_2008_Table.pdf']""]"
1165,O=[N+]([O-])c1ccc(C(=NS(=O)(=O)C(F)(F)F)NS(=O)(=O)C(F)(F)F)cc1,C(CCl)Cl,500721-97-1,"4-nitro-N,N'-bis(trifluoromethylsulfonyl)benzenecarboximidamide",31.7,[31.7],"[""['leito_acids']""]"
1166,CCCc1ccccc1[NH3+:10],O,0,0,4.36,[4.36],"[""['hunt_et_al']""]"
1167,CCC[NH+:17](CCC)[C@@H]1CCc2c(O)cccc2C1,O,0,0,10.85,[10.85],"[""['hunt_et_al']""]"
1168,COc1ccc([C@@]2(c3cccc(-c4cncnc4)c3)N=C(C)C(N)=[NH+:26]2)cc1C,O,0,0,5.83,[5.83],"[""['hunt_et_al']""]"
1169,COC(=O)[C@@H]1[C@@H](OC(=O)c2ccccc2)C[C@@H]2CC[C@H]1[N@H+:18]2C,O,0,0,8.7,[8.7],"[""['hunt_et_al']""]"
1170,CC(C)(O)c1ccccc1CC[C@@H](SCC1(CC(=O)[O-])CC1)c1cccc(/C=C/c2ccc3ccc(Cl)cc3[nH+:36]2)c1,O,0,0,5.6,[5.6],"[""['hunt_et_al']""]"
1171,C[C@H](CC1CCCCC1)[NH3+:10],O,0,0,10.14,[10.14],"[""['hunt_et_al']""]"
1172,CC(C)[NH+:8](CCCl)CCCl,O,0,0,6.98,[6.98],"[""['hunt_et_al']""]"
1173,O=[N+]([O-])c1ccc(S(=O)(=O)[NH:13]c2ccccc2)cc1,O,0,0,7.42,[7.42],"[""['hunt_et_al']""]"
1174,CC[NH+:8]1CCCCC1,O,0,0,10.45,[10.45],"[""['hunt_et_al']""]"
1175,CC[NH2+:5]CC,O,0,0,10.98,[10.98],"[""['hunt_et_al']""]"
1176,OC(C(F)(F)F)(C(F)(F)F)C(F)(F)F,CC#N,1/2/78,"1,1,1,3,3,3-hexafluoro-2-(trifluoromethyl)propan-2-ol",20.525,"[20.55, 20.5, 20.5, 20.55]","[""['MeCN_Acids_COSMO-RS_2008_Table.pdf', 'pKa_values_of_acids_in_acetonitrile.pdf', 'Ejoc202001649-sup-00001-misc_information.pdf', 'leito_acids']""]"
1177,CC(C)Cc1ccc([C@@H](C)C(=O)[NH:15]S(C)(=O)=O)cc1,O,0,0,4.7,[4.7],"[""['hunt_et_al']""]"
1178,CCOc1ccc(-c2ccccc2[OH:15])cc1,O,0,0,11.39,[11.39],"[""['hunt_et_al']""]"
1179,CC(C)CC[N@@H+:20](CC[N+]1(C)CCCCC1)c1ccccc1,O,0,0,3.06,[3.06],"[""['hunt_et_al']""]"
1180,CC(C)(C)c1ccccc1[NH3+:11],O,0,0,5.03,[5.03],"[""['hunt_et_al']""]"
1181,CCOC(=O)[C@H](CCc1ccccc1)[NH2+:22][C@@H](C)C(=O)N1CCC[C@H]1C(=O)O,O,0,0,6.4,[6.4],"[""['hunt_et_al']""]"
1182,O=[N+]([O-])c1cc(S(=O)(=O)NS(=O)(=O)c2c(F)c(F)c(F)c(F)c2F)ccc1Cl,CC#N,1171188-96-7,"N-((4-chloro-3-nitrophenyl)sulfonyl)-2,3,4,5,6-pentafluorobenzenesulfonamide",6.17,"[6.18, 6.16, 6.16, 6.18]","[""['DCE_2011_pKa_Table_MeCN.pdf', 'pKa_values_of_acids_in_acetonitrile.pdf', 'Ejoc202001649-sup-00001-misc_information.pdf', 'leito_acids']""]"
1183,C[C@@H]1[C@@H](C)C(C)(C)[NH2+:11]C1(C)C,O,0,0,11.4,[11.4],"[""['hunt_et_al']""]"
1184,CO/N=C1\CN(c2nc3c(cc2F)c(=O)c(C(=O)[O-])cn3C2CC2)C[C@@H]1C[NH3+:23],O,0,0,8.6,[8.6],"[""['hunt_et_al']""]"
1185,CN(C)[P+](N)(N(C)C)N(C)C,O,-,amino-tris(dimethylamino)phosphanium,15.1,[15.1],"[""['Bases_pKa_values_MeCN_DMSO_THF_Water.pdf']""]"
1186,FC(F)(F)Sc1ccc([NH3+:8])cc1,O,0,0,2.78,[2.78],"[""['hunt_et_al']""]"
1187,CCOc1ccccc1OS(=O)(=O)[NH:19]C(=O)Nc1nc(OC)cc(OC)n1,O,0,0,5.28,[5.28],"[""['hunt_et_al']""]"
1188,CCc1ccc([OH:13])c2sc(C)c(C)c12,O,0,0,9.56,[9.56],"[""['hunt_et_al']""]"
1189,CCOC(=O)C(C#N)c1c(F)c(F)c(F)c(F)c1F,C(CCl)Cl,2340-87-6,"ethyl 2-cyano-2-(2,3,4,5,6-pentafluorophenyl)acetate",52.5,"[52.5, 52.5]","[""['Ejoc202001649-sup-00001-misc_information.pdf', 'leito_acids']""]"
1190,Clc1cccc([NH3+:7])c1,O,0,0,3.46,[3.46],"[""['hunt_et_al']""]"
1191,CCC(CC)NC(=O)c1nnn(-c2ccccc2)c1[NH:25]S(=O)(=O)c1ccc(C)cc1,O,0,0,3.3,[3.3],"[""['hunt_et_al']""]"
1192,I,CS(=O)C,10034-85-2,iodane,-10.9,"[-10.9, -10.9]","[""['pKa_values_of_acids_and_bases_in_MeCN_DCE_DMSO_H2O_THF_C7_DME.pdf', 'Ejoc202001649-sup-00001-misc_information.pdf']""]"
1193,Cc1c(F)c(F)c(C(C#N)c2c(F)c(F)c(C)c(F)c2F)c(F)c1F,C(CCl)Cl,58432-44-3,"2,2-bis(2,3,5,6-tetrafluoro-4-methylphenyl)acetonitrile",57.8,"[57.8, 57.8]","[""['Ejoc202001649-sup-00001-misc_information.pdf', 'leito_acids']""]"
1194,O=C(O)C(Br)CBr,CC#N,600-05-5,"2,3-dibromopropanoic acid",17.1,[17.1],"[""['MeCN_Acids_COSMO-RS_2008_Table.pdf']""]"
1195,O=[N+]([O-])c1ccc(O)c([N+](=O)[O-])c1,CN(C)C=O,51-28-5,"2,4-dinitrophenol",6.33,[6.33],"[""['Ejoc202001649-sup-00001-misc_information.pdf']""]"
1196,C1CC[NH2+]CC1,CC#N,17523-59-0,piperidin-1-ium,19.35,[19.35],"[""['Bases_pKa_values_MeCN_DMSO_THF_Water.pdf']""]"
1197,c1cc2c(cc1[OH:11])CCCC2,O,0,0,10.48,[10.48],"[""['hunt_et_al']""]"
1198,Cc1ccc(S(=O)(=O)NS(=O)(=NS(=O)(=O)C(F)(F)F)c2ccc(Cl)cc2)cc1,CC#N,174788-93-3,N-(4-chloro-N-((trifluoromethyl)sulfonyl)phenylsulfonimidoyl)-4-methylbenzenesulfonamide,4.869999999999999,"[5.14, 4.81, 4.81, 4.78, 4.81]","[""['MeCN_Acids_COSMO-RS_2008_Table.pdf', 'DCE_2011_pKa_Table_MeCN.pdf', 'a_unified_view_to_bronsted_acidity_scales.pdf', 'Ejoc202001649-sup-00001-misc_information.pdf', 'leito_acids']""]"
1199,Nc1cc(Cl)cc[nH+:6]1,O,0,0,5.7,[5.7],"[""['hunt_et_al']""]"
1200,c1ccc(/N=N/c2ccc([OH:19])c3ccccc23)nc1,O,0,0,9.1,[9.1],"[""['hunt_et_al']""]"
1201,CC(=O)CCC(=O)[OH:8],O,0,0,4.64,[4.64],"[""['hunt_et_al']""]"
1202,O=Cc1ccccc1[NH3+:8],O,0,0,1.36,[1.36],"[""['hunt_et_al']""]"
1203,CC[NH+:9](CC)CCC#N,O,0,0,8.29,[8.29],"[""['hunt_et_al']""]"
1204,O=S(=O)(C(c1c(F)c(F)c(F)c(F)c1F)S(=O)(=O)C(F)(F)F)C(F)(F)F,C(CCl)Cl,405074-81-9,"1-[bis(trifluoromethylsulfonyl)methyl]-2,3,4,5,6-pentafluorobenzene",35.9,[35.9],"[""['leito_acids']""]"
1205,Oc1ccccc1S,CC#N,1121-24-0,2-sulfanylphenol,19.34,[19.34],"[""['MeCN_Acids_COSMO-RS_2008_Table.pdf']""]"
1206,CN1CCC[NH+]2CCCN=C12,O,-,"1-methyl-3,4,5,6,7,8-hexahydro-2H-pyrimido[1,2-a]pyrimidin-5-ium",15.0,[15.0],"[""['Bases_pKa_values_MeCN_DMSO_THF_Water.pdf']""]"
1207,FC(F)(F)C(C(F)(F)F)[OH:4],O,0,0,9.3,[9.3],"[""['hunt_et_al']""]"
1208,Cc1cc(C[N@@H+:27]2Cc3ccccc3C[C@H]2C(=O)Nc2ccc(Cl)cc2Cl)ccc1OCC(=O)[O-],O,0,0,6.2,[6.2],"[""['hunt_et_al']""]"
1209,Cc1cccc(C[NH3+:9])c1,O,0,0,9.45,[9.45],"[""['hunt_et_al']""]"
1210,C[NH2+]C,CS(=O)C,49784-85-2,dimethylazanium,10.3,[10.3],"[""['Bases_pKa_values_MeCN_DMSO_THF_Water.pdf']""]"
1211,C[NH+:11](C)CCc1ccccn1,O,0,0,8.75,[8.75],"[""['hunt_et_al']""]"
1212,CN1C(C(=O)Nc2cccc[nH+:16]2)=C(O)c2ccccc2S1(=O)=O,O,0,0,5.3,[5.3],"[""['hunt_et_al']""]"
1213,O=C(CBr)[OH:4],O,0,0,2.89,[2.89],"[""['hunt_et_al']""]"
1214,CCOC(=O)N1CCC(Nc2cc(Cl)cc[nH+:14]2)CC1,O,0,0,5.3,[5.3],"[""['hunt_et_al']""]"
1215,CC[NH+:21](CC)CCC[C@H](C)Nc1ccnc2cc(Cl)ccc12,O,0,0,10.6,[10.6],"[""['hunt_et_al']""]"
1216,C[C@@H](C=C(c1cccs1)c1cccs1)[N@H+:19]1CCC[C@@H](C)C1,O,0,0,8.23,[8.23],"[""['hunt_et_al']""]"
1217,OCC[NH2+:7]C(CO)(CO)CO,O,0,0,7.83,[7.83],"[""['hunt_et_al']""]"
1218,CCCCNC(=O)[NH:14]S(=O)(=O)c1ccc(C)cc1,O,0,0,5.3,[5.3],"[""['hunt_et_al']""]"
1219,Clc1ccc([SH:7])cc1,O,0,0,7.7,[7.7],"[""['hunt_et_al']""]"
1220,OCC[NH+:13](CCO)CCc1ccccc1,O,0,0,7.6,[7.6],"[""['hunt_et_al']""]"
1221,O=C(OC(F)(F)C(F)(F)F)c1cccc([NH3+:10])c1,O,0,0,3.24,[3.24],"[""['hunt_et_al']""]"
1222,CNCC(=O)[OH:6],O,0,0,2.35,[2.35],"[""['hunt_et_al']""]"
1223,COc1ccc(S(N)(=O)=O)cc1,CC#N,1129-26-6,4-methoxybenzenesulfonamide,25.09,[25.09],"[""['MeCN_Acids_COSMO-RS_2008_Table.pdf']""]"
1224,O=C(O)C(O)C(O)C(=O)O,CC#N,526-83-0,"2,3-dihydroxybutanedioic acid",15.1,[15.1],"[""['MeCN_Acids_COSMO-RS_2008_Table.pdf']""]"
1225,C[NH3+],C1CCOC1,17000-00-9,methylazanium,13.5,[13.5],"[""['Bases_pKa_values_MeCN_DMSO_THF_Water.pdf']""]"
1226,Clc1cc(Cl)c([OH:7])c(Cl)c1Cl,O,0,0,5.22,[5.22],"[""['hunt_et_al']""]"
1227,Cn1c(=O)c2nc[nH:9]c2n(C)c1=O,O,0,0,8.51,[8.51],"[""['hunt_et_al']""]"
1228,CC1CCC([NH3+:8])CC1,O,0,0,10.48,[10.48],"[""['hunt_et_al']""]"
1229,c1c[nH][nH+]c1,CS(=O)C,,1H-pyrazol-2-ium,1.0,[1.0],"[""['Bases_pKa_values_MeCN_DMSO_THF_Water.pdf']""]"
1230,Cc1cc([N+](=O)[O-])c(N)[nH+:7]c1,O,0,0,2.98,[2.98],"[""['hunt_et_al']""]"
1231,O=S(=O)(NS(=O)(=O)c1c(F)c(F)c(F)c(F)c1F)c1ccc(Cl)cc1,CC#N,1171188-85-4,"N-((4-chlorophenyl)sulfonyl)-2,3,4,5,6-pentafluorobenzenesulfonamide",7.5600000000000005,"[7.57, 7.55, 7.55, 7.57]","[""['DCE_2011_pKa_Table_MeCN.pdf', 'pKa_values_of_acids_in_acetonitrile.pdf', 'Ejoc202001649-sup-00001-misc_information.pdf', 'leito_acids']""]"
1232,CN(C)c1ccccc1S(=O)(=O)[NH:28]C(=O)N1CCC(N2CCC(Oc3ccc(Cl)c(Cl)c3)CC2)CC1,O,0,0,6.6,[6.6],"[""['hunt_et_al']""]"
1233,COc1ccc(C(=NS(=O)(=O)C(F)(F)F)NS(=O)(=O)C(F)(F)F)cc1,CC#N,500721-87-9,"4-methoxy-N,N'-bis(trifluoromethylsulfonyl)benzenecarboximidamide",6.16,"[6.41, 6.09, 6.05, 6.09]","[""['MeCN_Acids_COSMO-RS_2008_Table.pdf', 'DCE_2011_pKa_Table_MeCN.pdf', 'Ejoc202001649-sup-00001-misc_information.pdf', 'leito_acids']""]"
1234,O=[N+]([O-])c1ccc2ccc([NH3+:11])cc2c1,O,0,0,3.1,[3.1],"[""['hunt_et_al']""]"
1235,O=C1NS(=O)(=O)c2ccccc21,CS(=O)C,128-44-9,"1,1-dioxo-1,2-benzothiazol-3-one",4.0,"[4.0, 4.0]","[""['pKa_values_of_acids_and_bases_in_MeCN_DCE_DMSO_H2O_THF_C7_DME.pdf', 'Ejoc202001649-sup-00001-misc_information.pdf']""]"
1236,O=C(CCCCc1ccccc1)[OH:13],O,0,0,4.56,[4.56],"[""['hunt_et_al']""]"
1237,CC(C)C[NH+:7](C)C,O,0,0,10.08,[10.08],"[""['hunt_et_al']""]"
1238,C[NH+:9](C)c1cccc([N+](=O)[O-])c1,O,0,0,2.626,[2.626],"[""['hunt_et_al']""]"
1239,O=S(=O)(F)C(S(=O)(=O)F)S(=O)(=O)F,C(CCl)Cl,75533-68-5,methanetrisulfonyl fluoride,31.4,[31.4],"[""['leito_acids']""]"
1240,N#CC(O)=C(C#N)C#N,C(CCl)Cl,27062-39-1,"2-hydroxyethene-1,1,2-tricarbonitrile",36.166666666666664,"[36.3, 36.3, 35.9]","[""['Ejoc202001649-sup-00001-misc_information.pdf', 'leito_acids']"", ""['pKa_values_of_acids_and_bases_in_MeCN_DCE_DMSO_H2O_THF_C7_DME.pdf']""]"
1241,C[C@H]([C@@H](O)c1ccccc1)[NH2+:11]C,O,0,0,9.61,[9.61],"[""['hunt_et_al']""]"
1242,COc1cc(OC)cc([NH3+:9])c1,O,0,0,3.82,[3.82],"[""['hunt_et_al']""]"
1243,C[C@@H](O)C[NH+:14](Cc1ccccc1)C[C@@H](C)O,O,0,0,7.5,[7.5],"[""['hunt_et_al']""]"
1244,NC(Nc1ccccc1)=[NH+]c1ccccc1,CS(=O)C,-,[amino(anilino)methylidene]-phenylazanium,8.6,[8.6],"[""['Bases_pKa_values_MeCN_DMSO_THF_Water.pdf']""]"
1245,C[NH2+:6]CCCCO,O,0,0,9.55,[9.55],"[""['hunt_et_al']""]"
1246,CCCOC(C(=O)OC1CC[NH+:24](C)CC1)(c1ccccc1)c1ccccc1,O,0,0,6.65,[6.65],"[""['hunt_et_al']""]"
1247,C[NH2+:7][C@@H]1CCC[C@H]1O,O,0,0,10.06,[10.06],"[""['hunt_et_al']""]"
1248,COc1cc2c(N)nc(N3CCN(C(=O)c4ccco4)CC3)[nH+:20]c2cc1OC,O,0,0,7.0,[7.0],"[""['hunt_et_al']""]"
1249,CC[NH+:11](CC)c1ccc(Br)cc1,O,0,0,5.81,[5.81],"[""['hunt_et_al']""]"
1250,c1ccc2c(CC[NH3+:12])c[nH]c2c1,O,0,0,10.2,[10.2],"[""['hunt_et_al']""]"
1251,O=C(O)c1ccccc1Cl,CC#N,118-91-2,2-chlorobenzoic acid,19.0,[19.0],"[""['MeCN_Acids_COSMO-RS_2008_Table.pdf']""]"
1252,c1c[nH+]c2ccc([NH3+:11])nc2n1,O,0,0,-2.0,[-2.0],"[""['hunt_et_al']""]"
1253,CN/C(NC#N)=[NH+:13]/CCSCc1nc[nH]c1C,O,0,0,6.97,[6.97],"[""['hunt_et_al']""]"
1254,Cc1cc(-c2ccc(Cl)c(C(=O)NCC3(O)CCCCCC3)c2)nn1C[C@H](O)C[NH3+:25],O,0,0,8.6,[8.6],"[""['hunt_et_al']""]"
1255,CC[C@H](CO)[NH3+:5],O,0,0,9.52,[9.52],"[""['hunt_et_al']""]"
1256,Cc1csc(C(=O)[OH:8])n1,O,0,0,3.18,[3.18],"[""['hunt_et_al']""]"
1257,CC[N@@H+:8]1CCC[C@H]1C,O,0,0,10.56,[10.56],"[""['hunt_et_al']""]"
1258,COC(=O)[C@@H]([C@H](C(=O)[OH:16])C(C)(C)C)C(C)(C)C,O,0,0,5.57,[5.57],"[""['hunt_et_al']""]"
1259,C[NH+:6]1CCCC1,O,0,0,10.3,[10.3],"[""['hunt_et_al']""]"
1260,CCCCCCCC[NH2+:17]CCCCCCCC,O,0,0,11.01,[11.01],"[""['hunt_et_al']""]"
1261,CNc1nc(O)cc[nH+:6]1,O,0,0,3.9,[3.9],"[""['hunt_et_al']""]"
1262,COC(=O)[C@H](CC(=O)[OH:17])c1ccc([N+](=O)[O-])cc1,O,0,0,4.07,[4.07],"[""['hunt_et_al']""]"
1263,Cc1cc([N+](=O)[O-])cc2c1Nc1ccccc1O2,CC#N,-,-,25.8,[25.8],"[""['MeCN_Acids_COSMO-RS_2008_Table.pdf']""]"
1264,C[C@H](CCCc1ccc(O)cc1)[NH3+:12],O,0,0,9.4,[9.4],"[""['hunt_et_al']""]"
1265,C[C@@H](c1ccccc1Cl)[NH3+:9],O,0,0,8.8,[8.8],"[""['hunt_et_al']""]"
1266,N#CC(C#N)c1c(F)c(F)cc(F)c1F,C(CCl)Cl,55810-63-4,"2-(2,3,5,6-tetrafluorophenyl)propanedinitrile",23.75,"[0.0, 47.5]","[""['leito_acids']"", ""['Ejoc202001649-sup-00001-misc_information.pdf']""]"
1267,c1ccc2nc3c([OH:15])cccc3cc2c1,O,0,0,9.75,[9.75],"[""['hunt_et_al']""]"
1268,CC[NH+](CC)CCNC(=O)c1ccc([NH:15]S(C)(=O)=O)cc1,O,0,0,7.52,[7.52],"[""['hunt_et_al']""]"
1269,COC(=O)[C@H](CC(=O)[OH:14])c1ccccc1,O,0,0,4.36,[4.36],"[""['hunt_et_al']""]"
1270,c1ccc(C[C@@H]2CCC[NH2+:12]2)cc1,O,0,0,10.31,[10.31],"[""['hunt_et_al']""]"
1271,O=[N+]([O-])c1cc([NH3+:11])c2ccccc2c1,O,0,0,2.07,[2.07],"[""['hunt_et_al']""]"
1272,O=[N+]([O-])c1cc([N+](=O)[O-])c(O)c([N+](=O)[O-])c1,CS(=O)C,88-89-1,"2,4,6-trinitrophenol",-1.3299999999999998,"[-1.0, -1.09, -1.9]","[""['pKa_values_of_acids_and_bases_in_MeCN_DCE_DMSO_H2O_THF_C7_DME.pdf', 'a_unified_view_to_bronsted_acidity_scales.pdf', 'Ejoc202001649-sup-00001-misc_information.pdf']""]"
1273,CC(C)OCCOCc1ccc(OC[C@H](O)C[NH2+:19]C(C)C)cc1,O,0,0,9.87,[9.87],"[""['hunt_et_al']""]"
1274,N#CC(C#N)C#N,CC#N,454-50-2,methanetricarbonitrile,5.0,"[5.0, 5.0]","[""['pKa_values_of_acids_in_acetonitrile.pdf', 'Ejoc202001649-sup-00001-misc_information.pdf']""]"
1275,CCC[NH+](CC)CC,C1CCOC1,-,diethyl(propyl)azanium,12.7,[12.7],"[""['Bases_pKa_values_MeCN_DMSO_THF_Water.pdf']""]"
1276,Cc1cncnc1[OH:8],O,0,0,9.17,[9.17],"[""['hunt_et_al']""]"
1277,CC(C)c1ccccc1C(=O)[OH:12],O,0,0,3.63,[3.63],"[""['hunt_et_al']""]"
1278,c1ccc(C[NH+:13]2CCCCC2)nc1,O,0,0,8.51,[8.51],"[""['hunt_et_al']""]"
1279,Cc1cc(C)c(C)c([OH:10])c1,O,0,0,10.7,[10.7],"[""['hunt_et_al']""]"
1280,O=[N+]([O-])c1ccc(S(=O)(=O)NS(=O)(=O)c2ccc(Cl)c([N+](=O)[O-])c2)cc1,C(CCl)Cl,2226486-82-2,-,40.7,"[40.7, 40.7]","[""['Ejoc202001649-sup-00001-misc_information.pdf', 'leito_acids']""]"
1281,Oc1ccccc1C(F)(F)F,CS(=O)C,444-30-4,2-(trifluoromethyl)phenol,14.4,[14.4],"[""['Ejoc202001649-sup-00001-misc_information.pdf']""]"
1282,Oc1c(F)c(F)c(F)c2c(F)c(F)c(F)c(F)c12,CC#N,5386-30-1,"2,3,4,5,6,7,8-heptafluoronaphthalen-1-ol",19.713333333333335,"[19.72, 19.7, 19.72]","[""['MeCN_Acids_COSMO-RS_2008_Table.pdf', 'Ejoc202001649-sup-00001-misc_information.pdf', 'leito_acids']""]"
1283,FC(F)(F)c1cccc([NH3+:8])c1,O,0,0,3.49,[3.49],"[""['hunt_et_al']""]"
1284,C/C=C/C(=O)[OH:6],O,0,0,4.44,[4.44],"[""['hunt_et_al']""]"
1285,Cc1cccc([NH2+:9]C)c1,O,0,0,5.0,[5.0],"[""['hunt_et_al']""]"
1286,CC(=O)O[OH:4],O,0,0,8.2,[8.2],"[""['hunt_et_al']""]"
1287,OCCC[NH3+:4],O,0,0,9.96,[9.96],"[""['hunt_et_al']""]"
1288,c1ccc(-c2ccc([OH:13])cc2)cc1,O,0,0,9.55,[9.55],"[""['hunt_et_al']""]"
1289,O=C(O)c1cccc([N+](=O)[O-])c1,CC#N,121-92-6,3-nitrobenzoic acid,19.2,[19.2],"[""['MeCN_Acids_COSMO-RS_2008_Table.pdf']""]"
1290,CC(C)c1cccc([OH:10])c1,O,0,0,10.1,[10.1],"[""['hunt_et_al']""]"
1291,O=C(c1c(O)cccc1O)[OH:11],O,0,0,1.1,[1.1],"[""['hunt_et_al']""]"
1292,Cc1ccc(S(=O)(=O)NS(=O)(=O)c2ccc(Cl)cc2)cc1,CC#N,69173-28-0,N-(4-chlorophenyl)sulfonyl-4-methylbenzenesulfonamide,11.1,"[11.1, 11.1, 11.1]","[""['MeCN_Acids_COSMO-RS_2008_Table.pdf', 'Ejoc202001649-sup-00001-misc_information.pdf']"", ""['leito_acids']""]"
1293,N[C@@H]1CCc2cc([OH:12])c(O)cc2C1,O,0,0,9.1,[9.1],"[""['hunt_et_al']""]"
1294,CC(C)(C)C[NH2+:12]c1ccccc1,O,0,0,4.17,[4.17],"[""['hunt_et_al']""]"
1295,c1cc([NH3+:10])ccc1C1CC1,O,0,0,4.9,[4.9],"[""['hunt_et_al']""]"
1296,C[n+]1cc([OH:12])c2ccccc2c1,O,0,0,4.9,[4.9],"[""['hunt_et_al']""]"
1297,Cc1ccc2cccc([OH:12])c2n1,O,0,0,10.31,[10.31],"[""['hunt_et_al']""]"
1298,O=S(=O)(OCC(F)(F)F)c1cc(S(=O)(=O)OCC(F)(F)F)c(O)c(S(=O)(=O)OCC(F)(F)F)c1,CC#N,1263293-53-3,-,7.955,"[7.94, 7.97]","[""['Ejoc202001649-sup-00001-misc_information.pdf', 'leito_acids']""]"
1299,[NH3+]C1CCC(C(=O)[OH:10])CC1,O,0,0,4.3,[4.3],"[""['hunt_et_al']""]"
1300,O=C([O-])[C@H](c1ccccc1)[NH+:26]1CCC(N2CCC(Oc3ccc(Cl)c(Cl)c3)CC2)CC1,O,0,0,9.1,[9.1],"[""['hunt_et_al']""]"
1301,O=[N+]([O-])c1cccc([NH2+:16][C@H]2CCc3ccccc32)c1,O,0,0,-0.46,[-0.46],"[""['hunt_et_al']""]"
1302,O=S(=O)(c1ccc([NH3+:8])cc1)C(F)(F)F,O,0,0,-0.01,[-0.01],"[""['hunt_et_al']""]"
1303,FC(F)C(F)(F)Sc1cccc([NH3+:9])c1,O,0,0,3.39,[3.39],"[""['hunt_et_al']""]"
1304,O=C(c1cc([N+](=O)[O-])ccc1O)[OH:13],O,0,0,2.12,[2.12],"[""['hunt_et_al']""]"
1305,CCN(CC)CCNC(=O)c1ccc([NH:15]S(C)(=O)=O)cc1,O,0,0,7.52,[7.52],"[""['hunt_et_al']""]"
1306,[NH3+]C[C@@H]1Cc2c1ccc(O)c2[OH:12],O,0,0,10.4,[10.4],"[""['hunt_et_al']""]"
1307,CC[N@@H+:16]1CCC[C@H]1CNC(=O)c1cc(S(N)(=O)=O)ccc1OC,O,0,0,9.0,[9.0],"[""['hunt_et_al']""]"
1308,C[N+](C)(C)CCc1ccc([OH:13])cc1,O,0,0,9.8,[9.8],"[""['hunt_et_al']""]"
1309,c1ccc(C[NH+](Cc2ccccc2)Cc2ccccc2)cc1,O,-,tribenzylazanium,7.44,[7.44],"[""['Bases_pKa_values_MeCN_DMSO_THF_Water.pdf']""]"
1310,CC(=O)c1ccccc1[NH3+:9],O,0,0,2.22,[2.22],"[""['hunt_et_al']""]"
1311,O=C(CCl)N[OH:5],O,0,0,8.4,[8.4],"[""['hunt_et_al']""]"
1312,CCC[NH3+],CC#N,,propylazanium,18.44,[18.44],"[""['Bases_pKa_values_MeCN_DMSO_THF_Water.pdf']""]"
1313,C1=C[NH2+]C=N1,CS(=O)C,-,1H-imidazol-1-ium,6.26,[6.26],"[""['Bases_pKa_values_MeCN_DMSO_THF_Water.pdf']""]"
1314,CO/N=C1\CN(c2nc3c(cc2F)c(=O)c(C(=O)[OH:26])cn3C2CC2)C[C@@H]1C[NH3+],O,0,0,6.36,[6.36],"[""['hunt_et_al']""]"
1315,C[N+](C)(C)c1cccc([NH+:12](C)C)c1,O,0,0,2.6,[2.6],"[""['hunt_et_al']""]"
1316,C[NH+:9]1CCCC(=O)CCC1,O,0,0,8.75,[8.75],"[""['hunt_et_al']""]"
1317,C[NH+](C)C,C1CCOC1,,trimethylazanium,12.7,[12.7],"[""['Bases_pKa_values_MeCN_DMSO_THF_Water.pdf']""]"
1318,O=C1c2ccccc2C(=O)c2c1ccc(O)c2O,CC#N,72-48-0,"1,2-dihydroxyanthracene-9,10-dione",21.23,"[21.23, 21.23]","[""['pKa_values_of_acids_in_acetonitrile.pdf', 'Ejoc202001649-sup-00001-misc_information.pdf']""]"
1319,N#CC(c1c(F)c(F)nc(F)c1F)c1c(F)c(F)c(F)c(F)c1F,CC#N,62325-51-3,"2-(2,3,4,5,6-pentafluorophenyl)-2-(2,3,5,6-tetrafluoropyridin-4-yl)acetonitrile",16.396,"[16.4, 16.39, 16.4, 16.4, 16.39]","[""['a_unified_view_to_bronsted_acidity_scales.pdf', 'pKa_values_of_acids_in_acetonitrile.pdf', 'leito_acids']"", ""['MeCN_Acids_COSMO-RS_2008_Table.pdf', 'Ejoc202001649-sup-00001-misc_information.pdf']""]"
1320,c1ccc2c(c1)-c1cccc3c1C2c1ccccc1-3,CC#N,205-94-7,fluoradene,23.910000000000004,"[23.9, 23.92, 23.92, 23.9]","[""['MeCN_Acids_COSMO-RS_2008_Table.pdf', 'pKa_values_of_acids_in_acetonitrile.pdf', 'Ejoc202001649-sup-00001-misc_information.pdf', 'leito_acids']""]"
1321,C[NH2+:10]CCc1ccccn1,O,0,0,9.89,"[10.0, 9.78]","[""['hunt_et_al']"", ""['hunt_et_al']""]"