,Solute SMILES,Solvent SMILES,Solute CAS,Solute IUPAC,pKa (avg),pKa (all),Source (all)
1453,COc1cc(C(C)(C)C)c(O)c(C(C)(C)C)c1,O,0,0,12.15,[12.15],"['[""[\'hunt_et_al\']""]']"
1454,CN(C)c1c(F)c(F)c(Nc2c(F)c(F)c(F)c(F)c2F)c(F)c1F,CS(=O)C,80588-34-7,"2,3,5,6-tetrafluoro-N1,N1-dimethyl-N4-(perfluorophenyl)benzene-1,4-diamine",12.7,[12.7],"['[""[\'Ejoc202001649-sup-00001-misc_information.pdf\']""]']"
1455,NCC[NH3+],C1CCOC1,-,2-aminoethylazanium,13.6,[13.6],"['[""[\'Bases_pKa_values_MeCN_DMSO_THF_Water.pdf\']""]']"
1456,CCCCNc1nccc[nH+]1,O,0,0,4.14,[4.14],"['[""[\'hunt_et_al\']""]']"
1457,Cc1ccc(-n2nc(C(C)(C)C)cc2NC(=O)Nc2ccc(OCC[NH+]3CCOCC3)c3ccccc23)cc1,O,0,0,6.41,[6.41],"['[""[\'hunt_et_al\']""]']"
1458,CC[C@@H](C)C(=O)O,O,0,0,4.81,[4.81],"['[""[\'hunt_et_al\']""]']"
1459,COc1ccc(OC)c([C@@H](O)CNC(=O)C[NH3+])c1,O,0,0,7.59,[7.59],"['[""[\'hunt_et_al\']""]']"
1460,c1ccc(CC2=[NH+]CCN2)cc1,O,0,0,10.7,[10.7],"['[""[\'hunt_et_al\']""]']"
1461,C[NH+](C)Cc1ccccc1,O,0,0,8.91,[8.91],"['[""[\'hunt_et_al\']""]']"
1462,[NH3+]c1ccc(OC(F)(F)F)cc1,O,0,0,3.82,[3.82],"['[""[\'hunt_et_al\']""]']"
1463,Cc1ccccc1C[C@@H](C(=O)O)N1CCC(C[NH+]2CCC(Oc3ccc(Cl)c(Cl)c3)CC2)CC1,O,0,0,9.2,[9.2],"['[""[\'hunt_et_al\']""]']"
1464,C[NH+](C)CCC(=O)Cc1ccccc1,O,0,0,8.3,[8.3],"['[""[\'hunt_et_al\']""]']"
1465,N#CC(C#N)c1cccc(C(F)(F)F)c1,CC#N,99726-60-0,2-[3-(trifluoromethyl)phenyl]propanedinitrile,14.715,"[14.72, 14.72, 14.7, 14.72]","['[""[\'MeCN_Acids_COSMO-RS_2008_Table.pdf\', \'a_unified_view_to_bronsted_acidity_scales.pdf\', \'Ejoc202001649-sup-00001-misc_information.pdf\', \'leito_acids\']""]']"
1466,CC[C@@H]([NH3+])c1ccc(Cl)cc1,O,0,0,9.1,[9.1],"['[""[\'hunt_et_al\']""]']"
1467,O=c1c(F)c(F)[nH]c(F)c1F,CC#N,2693-66-5,"2,3,5,6-tetrafluoro-1H-pyridin-4-one",15.395,"[15.4, 15.39, 15.39, 15.4]","['[""[\'MeCN_Acids_COSMO-RS_2008_Table.pdf\', \'pKa_values_of_acids_in_acetonitrile.pdf\', \'Ejoc202001649-sup-00001-misc_information.pdf\', \'leito_acids\']""]']"
1468,c1ccc(C[NH+](Cc2ccccc2)Cc2ccccc2)cc1,CC#N,-,tribenzylazanium,12.9,[12.9],"['[""[\'Bases_pKa_values_MeCN_DMSO_THF_Water.pdf\']""]']"
1469,CCC[N@H+](C)c1ccccc1,O,0,0,5.76,[5.76],"['[""[\'hunt_et_al\']""]']"
1470,C[NH2+][C@H](C)CC1CCCCC1,O,0,0,10.52,[10.52],"['[""[\'hunt_et_al\']""]']"
1471,COc1ccccc1/C=C/C(=O)O,O,0,0,4.46,[4.46],"['[""[\'hunt_et_al\']""]']"
1472,C[NH2+]C[C@H](C)c1ccccc1,O,0,0,10.07,[10.07],"['[""[\'hunt_et_al\']""]']"
1473,CCOC(=O)C(C#N)c1c(F)c(F)c(C(F)(F)F)c(F)c1F,CC#N,32251-53-9,"ethyl 2-cyano-2-[2,3,5,6-tetrafluoro-4-(trifluoromethyl)phenyl]acetate",16.0775,"[16.08, 16.08, 16.07, 16.08]","['[""[\'MeCN_Acids_COSMO-RS_2008_Table.pdf\', \'a_unified_view_to_bronsted_acidity_scales.pdf\', \'Ejoc202001649-sup-00001-misc_information.pdf\', \'leito_acids\']""]']"
1474,CC(C)(C)c1cc[nH+]c(N)n1,O,0,0,4.58,[4.58],"['[""[\'hunt_et_al\']""]']"
1475,CCn1cc(C(=O)O)c(=O)c2cc(F)c(N3CCN[C@H](C)C3)c(F)c21,O,0,0,5.82,[5.82],"['[""[\'hunt_et_al\']""]']"
1476,Cc1cc(O)cc(C)c1C,O,0,0,10.25,[10.25],"['[""[\'hunt_et_al\']""]']"
1477,O=S(=O)(Cc1ccccc1)C(F)(F)F,CC#N,-,trifluoromethylsulfonylmethylbenzene,27.19,"[27.19, 27.19]","['[""[\'pKa_values_of_acids_in_acetonitrile.pdf\', \'Ejoc202001649-sup-00001-misc_information.pdf\']""]']"
1478,C[C@H]1CC[C@@H](O)[C@@H]([NH3+])C1,O,0,0,9.38,[9.38],"['[""[\'hunt_et_al\']""]']"
1479,O=C(O)C[N+](=O)[O-],O,0,0,1.48,[1.48],"['[""[\'hunt_et_al\']""]']"
1480,C[NH2+]C[C@H](O)c1ccc(Cl)c(Cl)c1,O,0,0,9.11,[9.11],"['[""[\'hunt_et_al\']""]']"
1481,C1C[NH+]2CCC1CC2,O,0,0,10.975,"[10.95, 11.0]","['[""[\'hunt_et_al\']""]', '[""[\'Bases_pKa_values_MeCN_DMSO_THF_Water.pdf\']""]']"
1482,O=C(O)CCc1ccc([N+](=O)[O-])cc1,O,0,0,4.54,[4.54],"['[""[\'hunt_et_al\']""]']"
1483,COc1ccc(C(=O)N(O)c2ccccc2C)cc1,O,0,0,8.44,[8.44],"['[""[\'hunt_et_al\']""]']"
1484,CCC(C)(C)[NH3+],O,0,0,10.72,[10.72],"['[""[\'hunt_et_al\']""]']"
1485,Cc1ccccc1C[C@@H](C(=O)[O-])N1CCC(C[NH+]2CCC(Oc3ccc(Cl)c(Cl)c3)CC2)CC1,O,0,0,9.2,[9.2],"['[""[\'hunt_et_al\']""]']"
1486,Cc1cc(O)cc(O)c1C(=[NH2+])c1ccccc1,O,0,0,6.75,[6.75],"['[""[\'hunt_et_al\']""]']"
1487,O=C(Cc1ccccc1)NO,O,0,0,9.19,[9.19],"['[""[\'hunt_et_al\']""]']"
1488,C[C@@H](CO)[NH2+]CCc1ccc(O)c(O)c1,O,0,0,9.87,[9.87],"['[""[\'hunt_et_al\']""]']"
1489,Cc1cccc(Cl)c1[NH3+],O,0,0,3.62,[3.62],"['[""[\'hunt_et_al\']""]']"
1490,N#Cc1c(O)nc(N)nc1-c1ccccc1,O,0,0,6.52,[6.52],"['[""[\'hunt_et_al\']""]']"
1491,c1ccc2[nH+]ccnc2c1,CC#N,,quinoxalin-1-ium,7.4,[7.4],"['[""[\'pKa_values_of_nitrogen_heterocycles.pdf\']""]']"
1492,COc1c(Br)cc([NH3+])cc1Br,O,0,0,2.98,[2.98],"['[""[\'hunt_et_al\']""]']"
1493,N#CC(c1c(F)c(F)c2c(F)c(F)c(F)c(F)c2c1F)c1c(F)c(F)c2c(F)c(F)c(F)c(F)c2c1F,C(CCl)Cl,62325-38-6,"2,2-bis(1,3,4,5,6,7,8-heptafluoronaphthalen-2-yl)acetonitrile",53.26666666666667,"[53.0, 53.4, 53.4]","['[""[\'pKa_values_of_acids_and_bases_in_MeCN_DCE_DMSO_H2O_THF_C7_DME.pdf\', \'Ejoc202001649-sup-00001-misc_information.pdf\', \'leito_acids\']""]']"
1494,O=[N+]([O-])c1cccc([N+](=O)[O-])c1O,CC#N,573-56-8,"2,6-dinitrophenol",16.74,"[16.74, 16.74]","['[""[\'pKa_values_of_acids_in_acetonitrile.pdf\', \'Ejoc202001649-sup-00001-misc_information.pdf\']""]']"
1495,Cc1cc(C)cc([NH2+][C@H]2CCc3ccccc32)c1,O,0,0,1.3,[1.3],"['[""[\'hunt_et_al\']""]']"
1496,C[NH+](C)C,CS(=O)C,,trimethylazanium,8.4,[8.4],"['[""[\'Bases_pKa_values_MeCN_DMSO_THF_Water.pdf\']""]']"
1497,CN1CC[NH+](C)CC1,C1CCOC1,-,"1,4-dimethylpiperazin-1-ium",12.4,[12.4],"['[""[\'Bases_pKa_values_MeCN_DMSO_THF_Water.pdf\']""]']"
1498,CCn1cc(C(=O)O)c(=O)c2cc(F)c(N3CC[NH2+]CC3)nc21,O,0,0,7.48,"[8.76, 6.2]","['[""[\'hunt_et_al\']""]', '[""[\'hunt_et_al\']""]']"
1499,C[C@@H]([NH3+])CCCc1ccc(O)cc1,O,0,0,9.4,[9.4],"['[""[\'hunt_et_al\']""]']"
1500,O=C([O-])[C@H](c1ccccc1)N1CCC(C[NH+]2CCC(Oc3ccc(Cl)c(Cl)c3)CC2)CC1,O,0,0,9.6,[9.6],"['[""[\'hunt_et_al\']""]']"
1501,CCCC(=O)SCC[NH+](C)C,O,0,0,8.32,[8.32],"['[""[\'hunt_et_al\']""]']"
1502,c1ccc([C@@H]2CCC[NH2+]2)cc1,O,0,0,9.6,[9.6],"['[""[\'hunt_et_al\']""]']"
1503,Fc1nc(F)c(F)c(Nc2ccccc2)c1F,CS(=O)C,39077-43-5,"2,3,5,6-tetrafluoro-N-phenylpyridin-4-amine",8.3,[8.3],"['[""[\'Ejoc202001649-sup-00001-misc_information.pdf\']""]']"
1504,CN(C)CC[NH+](C)C,CC#N,-,2-(dimethylamino)ethyl-dimethylazanium,18.69,[18.69],"['[""[\'Bases_pKa_values_MeCN_DMSO_THF_Water.pdf\']""]']"
1505,c1ccc2[nH+]c(-c3cscn3)[nH]c2c1,O,,"4-(1H-benzimidazol-3-ium-2-yl)-1,3-thiazole",4.64,[4.64],"['[""[\'pKa_values_of_nitrogen_heterocycles.pdf\']""]']"
1506,Nc1ncc(-c2ccc(Br)cc2)c[nH+]1,O,0,0,3.06,[3.06],"['[""[\'hunt_et_al\']""]']"
1507,N[NH3+],O,18500-32-8,aminoazanium,7.96,[7.96],"['[""[\'Bases_pKa_values_MeCN_DMSO_THF_Water.pdf\']""]']"
1508,O=C(O)c1cc(/N=N/c2ccccc2)ccc1O,O,0,0,2.3,[2.3],"['[""[\'hunt_et_al\']""]']"
1509,[NH3+]c1ccccc1-c1ccccc1,O,0,0,3.82,[3.82],"['[""[\'hunt_et_al\']""]']"
1510,O=C(O)c1ccc([N+](=O)[O-])c([N+](=O)[O-])c1,O,0,0,2.82,[2.82],"['[""[\'hunt_et_al\']""]']"
1511,Cc1cc(O)cc(C)c1C#N,O,0,0,8.21,[8.21],"['[""[\'hunt_et_al\']""]']"
1512,O=S(=O)(C(c1ccccc1)S(=O)(=O)C(F)(F)F)C(F)(F)F,CC#N,40906-82-9,bis(trifluoromethylsulfonyl)methylbenzene,7.802,"[7.85, 7.85, 7.73, 7.73, 7.85]","['[""[\'MeCN_Acids_COSMO-RS_2008_Table.pdf\', \'DCE_2011_pKa_Table_MeCN.pdf\', \'pKa_values_of_acids_in_acetonitrile.pdf\', \'Ejoc202001649-sup-00001-misc_information.pdf\', \'leito_acids\']""]']"
1513,CC[NH+](CC)CCOC(=O)c1ccc(Br)cc1,O,0,0,8.12,[8.12],"['[""[\'hunt_et_al\']""]']"
1514,C[N+](C)(C)CCCc1cccc(O)c1,O,0,0,9.64,[9.64],"['[""[\'hunt_et_al\']""]']"
1515,CC[NH+](CC)Cc1ccccc1,O,0,0,9.44,[9.44],"['[""[\'hunt_et_al\']""]']"
1516,Cn1c([S@@](=O)Cc2cccc[nH+]2)nc2ccccc21,O,0,0,2.6,[2.6],"['[""[\'hunt_et_al\']""]']"
1517,CCOC(=O)CCCC[NH3+],O,0,0,10.5,[10.5],"['[""[\'hunt_et_al\']""]']"
1518,NS(=O)(=O)c1ccc(F)cc1,CN(C)C=O,402-46-0,4-fluorobenzenesulfonamide,16.67,[16.67],"['[""[\'Ejoc202001649-sup-00001-misc_information.pdf\']""]']"
1519,O=[N+]([O-])c1cc([N+](=O)[O-])c(O)c([N+](=O)[O-])c1O,C(CCl)Cl,82-71-3,"2,4,6-trinitrobenzene-1,3-diol",44.1,[44.1],"['[""[\'leito_acids\']""]']"
1520,[NH3+]c1ccccc1Cl,CC#N,,(2-chlorophenyl)azanium,7.86,[7.86],"['[""[\'pKa_values_of_nitrogen_heterocycles.pdf\']""]']"
1521,O=C(Nc1ccc([NH+]2CCOCC2)c(F)c1)c1nnc(Nc2ccccc2F)o1,O,0,0,6.17,[6.17],"['[""[\'hunt_et_al\']""]']"
1522,CC(=O)CCC(=O)O,O,0,0,4.64,[4.64],"['[""[\'hunt_et_al\']""]']"
1523,[NH3+]Cc1ccccc1,CS(=O)C,-,benzylazanium,10.16,[10.16],"['[""[\'Bases_pKa_values_MeCN_DMSO_THF_Water.pdf\']""]']"
1524,CC1(C)C[NH2+]CC(C)(C)C1,O,0,0,10.1,[10.1],"['[""[\'hunt_et_al\']""]']"
1525,CCO[Si](C[NH3+])(OCC)OCC,O,0,0,8.34,[8.34],"['[""[\'hunt_et_al\']""]']"
1526,Oc1c(/N=N/c2nccs2)ccc2ccccc12,O,0,0,9.1,[9.1],"['[""[\'hunt_et_al\']""]']"
1527,CC(C)C([NH3+])C(C)C,O,0,0,10.23,[10.23],"['[""[\'hunt_et_al\']""]']"
1528,[NH3+]c1ccc([N+](=O)[O-])c([N+](=O)[O-])c1,O,0,0,-1.2,[-1.2],"['[""[\'hunt_et_al\']""]']"
1529,C[NH+](C)CCc1ccncc1,O,0,0,8.7,[8.7],"['[""[\'hunt_et_al\']""]']"
1530,CCCCNc1ccc(C(=O)OCC[NH+](C)C)cc1,O,0,0,8.5,[8.5],"['[""[\'hunt_et_al\']""]']"
1531,Oc1ccc2nccnc2c1,O,0,0,7.94,[7.94],"['[""[\'hunt_et_al\']""]']"
1532,O=[N+]([O-])c1ccc(S(=O)(=O)O)c([N+](=O)[O-])c1,C(CCl)Cl,89-02-1,"2,4-dinitrobenzenesulfonic acid",36.0,"[36.0, 36.0]","['[""[\'Ejoc202001649-sup-00001-misc_information.pdf\', \'leito_acids\']""]']"
1533,[NH3+]CCC=C(Cl)Cl,O,0,0,10.12,[10.12],"['[""[\'hunt_et_al\']""]']"
1534,CN(C)[P+](NC(C)(C)C)(N(C)C)N(C)C,CS(=O)C,-,(tert-butylamino)-tris(dimethylamino)phosphanium,15.7,[15.7],"['[""[\'Bases_pKa_values_MeCN_DMSO_THF_Water.pdf\']""]']"
1535,[NH3+]c1cc([N+](=O)[O-])cc2ccccc12,O,0,0,2.07,[2.07],"['[""[\'hunt_et_al\']""]']"
1536,O=C(O)CI,O,0,0,3.18,[3.18],"['[""[\'hunt_et_al\']""]']"
1537,c1ccc2[nH]ccc2c1,CC#N,120-72-9,1H-indole,32.57,[32.57],"['[""[\'Ejoc202001649-sup-00001-misc_information.pdf\']""]']"
1538,Cc1ccc(S)cc1,O,0,0,6.82,[6.82],"['[""[\'hunt_et_al\']""]']"
1539,C[C@@H]1CCCC[C@@H]1[NH3+],O,0,0,10.5,[10.5],"['[""[\'hunt_et_al\']""]']"
1540,[NH4+],CS(=O)C,14798-03-9,azanium,10.5,[10.5],"['[""[\'Bases_pKa_values_MeCN_DMSO_THF_Water.pdf\']""]']"
1541,O=[N+]([O-])c1ccc2[nH]ccc2c1,CC#N,6146-52-7,5-nitro-1H-indole,28.18,"[28.18, 28.18]","['[""[\'pKa_values_of_acids_in_acetonitrile.pdf\', \'Ejoc202001649-sup-00001-misc_information.pdf\']""]']"
1542,O=C(Nc1ccc([N+](=O)[O-])cc1O)Nc1ccccc1Br,O,0,0,7.7,[7.7],"['[""[\'hunt_et_al\']""]']"
1543,NCCCCC[NH3+],CC#N,-,5-aminopentylazanium,19.14,[19.14],"['[""[\'Bases_pKa_values_MeCN_DMSO_THF_Water.pdf\']""]']"
1544,Cl,C(CCl)Cl,7647-01-0,chlorane,45.20000000000001,"[45.2, 45.2, 45.2]","['[""[\'pKa_values_of_acids_and_bases_in_MeCN_DCE_DMSO_H2O_THF_C7_DME.pdf\', \'Ejoc202001649-sup-00001-misc_information.pdf\', \'leito_acids\']""]']"
1545,CNCC(=O)O,O,0,0,2.35,[2.35],"['[""[\'hunt_et_al\']""]']"
1546,O=[N+]([O-])c1ccc(O)c([N+](=O)[O-])c1,CS(=O)C,51-28-5,"2,4-dinitrophenol",5.25,"[5.4, 5.1]","['[""[\'pKa_values_of_acids_and_bases_in_MeCN_DCE_DMSO_H2O_THF_C7_DME.pdf\', \'Ejoc202001649-sup-00001-misc_information.pdf\']""]']"
1547,COc1ccccc1[C@@H](O)C[NH2+]C(C)C,O,0,0,9.69,[9.69],"['[""[\'hunt_et_al\']""]']"
1548,Nc1nccc[nH+]1,O,0,0,3.45,[3.45],"['[""[\'hunt_et_al\']""]']"
1549,CC(C)(C)c1cc([NH3+])cc(C(C)(C)C)c1[N+](=O)[O-],O,0,0,2.93,[2.93],"['[""[\'hunt_et_al\']""]']"
1550,N#CC(c1c(F)c(F)c(F)c(F)c1F)c1c(F)c(F)c(F)c(F)c1F,CC#N,42238-34-6,"2,2-bis(2,3,4,5,6-pentafluorophenyl)acetonitrile",21.096000000000004,"[21.1, 21.1, 21.09, 21.09, 21.1]","['[""[\'MeCN_Acids_COSMO-RS_2008_Table.pdf\', \'pKa_values_of_acids_and_bases_in_MeCN_DCE_DMSO_H2O_THF_C7_DME.pdf\', \'pKa_values_of_acids_in_acetonitrile.pdf\', \'Ejoc202001649-sup-00001-misc_information.pdf\', \'leito_acids\']""]']"
1551,O=C(O)c1cccc(Oc2ccccc2)c1,O,0,0,3.95,[3.95],"['[""[\'hunt_et_al\']""]']"
1552,O=C(O)COc1cccc(F)c1,O,0,0,3.07,[3.07],"['[""[\'hunt_et_al\']""]']"
1553,CC(C)[NH2+]C[C@H](O)c1cccc(C#N)c1,O,0,0,9.33,[9.33],"['[""[\'hunt_et_al\']""]']"
1554,CC[NH+](CC)[C@H](C)C(=O)c1ccccc1,O,0,0,8.8,[8.8],"['[""[\'hunt_et_al\']""]']"
1555,N#CC(C#N)c1c(C(F)(F)F)cc(C(F)(F)F)c(C(F)(F)F)c1C(F)(F)F,C(CCl)Cl,1018330-49-8,"2-(2,3,4,6-tetrakis(trifluoromethyl)phenyl)malononitrile",44.2,"[44.2, 44.2]","['[""[\'Ejoc202001649-sup-00001-misc_information.pdf\', \'leito_acids\']""]']"
1556,Cc1cc(C)c([NH3+])c(C)c1,O,0,0,4.38,[4.38],"['[""[\'hunt_et_al\']""]']"
1557,COc1c(O)cccc1C[NH3+],O,0,0,8.89,[8.89],"['[""[\'hunt_et_al\']""]']"
1558,O=S(=O)(N=C(NS(=O)(=O)C(F)(F)F)c1ccc(Cl)cc1)C(F)(F)F,C(CCl)Cl,500721-95-9,"4-chloro-N,N'-bis(trifluoromethylsulfonyl)benzenecarboximidamide",32.7,[32.7],"['[""[\'leito_acids\']""]']"
1559,CCC[C@@H]1CCCC[NH2+]1,O,0,0,10.9,[10.9],"['[""[\'hunt_et_al\']""]']"
1560,Cc1cc(C[N@@H+]2Cc3ccccc3C[C@H]2C(=O)Nc2ccc(Cl)cc2Cl)ccc1OCC(=O)[O-],O,0,0,6.2,[6.2],"['[""[\'hunt_et_al\']""]']"
1561,O=C(O)c1ccc(O)c(O)c1,O,0,0,4.48,[4.48],"['[""[\'hunt_et_al\']""]']"
1562,O=C(O)c1cccc(C(=O)O)c1,CC#N,121-91-5,"benzene-1,3-dicarboxylic acid",19.3,[19.3],"['[""[\'MeCN_Acids_COSMO-RS_2008_Table.pdf\']""]']"
1563,Cc1c(F)c(F)c(C(C#N)c2c(F)c(F)c(F)c(F)c2F)c(F)c1F,CC#N,52345-34-3,"2-(2,3,4,5,6-pentafluorophenyl)-2-(2,3,5,6-tetrafluoro-4-methylphenyl)acetonitrile",21.94,"[21.94, 21.94, 21.94]","['[""[\'a_unified_view_to_bronsted_acidity_scales.pdf\', \'pKa_values_of_acids_in_acetonitrile.pdf\', \'leito_acids\']""]']"
1564,O=C(O)[C@H](c1ccccc1)N1CCC([NH+]2CCC(Oc3ccc(Cl)c(Cl)c3)CC2)CC1,O,0,0,9.1,[9.1],"['[""[\'hunt_et_al\']""]']"
1565,[O-]C(=S)CCCCC(O)=S,O,0,0,4.352,[4.352],"['[""[\'hunt_et_al\']""]']"
1566,C#CC(C)(C)[NH2+]C(C)(C)CC,O,0,0,9.0,[9.0],"['[""[\'hunt_et_al\']""]']"
1567,Oc1ccccc1-c1ccccn1,O,0,0,9.98,[9.98],"['[""[\'hunt_et_al\']""]']"
1568,N#CC(C#N)=C(Br)C(C#N)C#N,C(CCl)Cl,100125-09-5,"2-bromoprop-1-ene-1,1,3,3-tetracarbonitrile",33.2,[33.2],"['[""[\'leito_acids\']""]']"
1569,O=[N+]([O-])c1ccc(O)cc1,CC#N,100-02-7,4-nitrophenol,20.7,[20.7],"['[""[\'MeCN_Acids_COSMO-RS_2008_Table.pdf\']""]']"
1570,[NH3+]c1ccc2[nH+]ccnc2n1,O,0,0,-2.0,"[-2.0, -2.0]","['[""[\'hunt_et_al\']""]', '[""[\'hunt_et_al\']""]']"
1571,CC1=CCCC[N@H+]1C,O,0,0,11.38,[11.38],"['[""[\'hunt_et_al\']""]']"
1572,O=C(O)c1c(Br)cccc1CO,O,0,0,2.25,[2.25],"['[""[\'hunt_et_al\']""]']"
1573,c1cnc[nH+]c1,CS(=O)C,-,pyrimidin-1-ium,0.55,[0.55],"['[""[\'Bases_pKa_values_MeCN_DMSO_THF_Water.pdf\']""]']"
1574,CC1(C)S[C@@H]2[C@H](NC(=O)[C@H]([NH3+])c3ccccc3)C(=O)N2[C@H]1C(=O)[O-],O,0,0,7.7,[7.7],"['[""[\'hunt_et_al\']""]']"
1575,C[N+](C)(C)c1cccc(CC(=O)O)c1,O,0,0,3.66,[3.66],"['[""[\'hunt_et_al\']""]']"
1576,CC(=O)Oc1ccccc1C(=O)O,O,0,0,3.5,[3.5],"['[""[\'hunt_et_al\']""]']"
1577,NS(=O)(=O)c1cccc([N+](=O)[O-])c1,CS(=O)C,121-52-8,3-nitrobenzenesulfonamide,14.9,[14.9],"['[""[\'Ejoc202001649-sup-00001-misc_information.pdf\']""]']"
1578,Oc1ccccc1,CN(C)C=O,108-95-2,phenol,18.4,[18.4],"['[""[\'Ejoc202001649-sup-00001-misc_information.pdf\']""]']"
1579,O=[N+]([O-])c1ccc(S(=O)(=O)NS(=O)(=O)C(F)(F)F)cc1,CC#N,174788-91-1,4-nitro-N-(trifluoromethylsulfonyl)benzenesulfonamide,4.118333333333333,"[4.39, 4.04, 4.08, 4.08, 4.04, 4.08]","['[""[\'MeCN_Acids_COSMO-RS_2008_Table.pdf\', \'Ejoc202001649-sup-00001-misc_information.pdf\']"", ""[\'DCE_2011_pKa_Table_MeCN.pdf\', \'a_unified_view_to_bronsted_acidity_scales.pdf\', \'pKa_values_of_acids_in_acetonitrile.pdf\', \'leito_acids\']""]']"
1580,N#Cc1ccc(O)cc1,O,0,0,7.95,[7.95],"['[""[\'hunt_et_al\']""]']"
1581,N#CC(C#N)=C(C#N)C(C#N)C#N,C(CCl)Cl,45078-17-9,"prop-1-ene-1,1,2,3,3-pentacarbonitrile",29.7,[29.7],"['[""[\'leito_acids\']""]']"
1582,N#Cc1c(F)c(F)c(N)c(F)c1F,CS(=O)C,17823-38-0,"4-amino-2,3,5,6-tetrafluorobenzonitrile",17.2,[17.2],"['[""[\'Ejoc202001649-sup-00001-misc_information.pdf\']""]']"
1583,CC(=O)C(CC[NH+]1CCOCC1)(c1ccccc1)c1ccccc1,O,0,0,6.83,[6.83],"['[""[\'hunt_et_al\']""]']"
1584,O=C(O)[C@H](c1ccccc1)N1CCC(C[NH+]2CCC(Oc3ccc(Cl)c(Cl)c3)CC2)CC1,O,0,0,6.3,"[3.0, 9.6]","['[""[\'hunt_et_al\']""]', '[""[\'hunt_et_al\']""]']"
1585,CCOC(=O)c1cnn(C)c1S(=O)(=O)NC(=O)Nc1nc(OC)cc(OC)n1,O,0,0,3.7,[3.7],"['[""[\'hunt_et_al\']""]']"
1586,[NH3+]C(CO)(CO)CO,O,0,0,8.08,[8.08],"['[""[\'hunt_et_al\']""]']"
1587,N#CC(c1ccc(C(F)(F)F)cc1)c1c(F)c(F)c(F)c(F)c1F,CC#N,42238-35-7,2-(perfluorophenyl)-2-(4-(trifluoromethyl)phenyl)acetonitrile,18.134999999999998,"[18.14, 18.13]","['[""[\'MeCN_Acids_COSMO-RS_2008_Table.pdf\', \'Ejoc202001649-sup-00001-misc_information.pdf\']""]']"
1588,Cc1cc([N+](=O)[O-])ccc1C(=O)O,O,0,0,2.95,[2.95],"['[""[\'hunt_et_al\']""]']"
1589,COc1ccc(S(=O)(=O)NC(=O)N2CCC(N3CCC(Oc4ccc(Cl)c(Cl)c4)CC3)CC2)cc1,O,0,0,3.6,[3.6],"['[""[\'hunt_et_al\']""]']"
1590,Oc1cccc2c1CCCC2,O,0,0,10.28,[10.28],"['[""[\'hunt_et_al\']""]']"
1591,CC(C)[N@H+](CC[N+]1(C)CCCCC1)c1ccccc1,O,0,0,3.26,[3.26],"['[""[\'hunt_et_al\']""]']"
1592,O=C(NCC12CC3CC(CC(C3)C1)C2)c1ccnc(N2CC[NH2+]CC2)c1Cl,O,0,0,8.7,[8.7],"['[""[\'hunt_et_al\']""]']"
1593,O=P(NP(=O)(C(F)(F)C(F)(F)F)C(F)(F)C(F)(F)F)(C(F)(F)C(F)(F)F)C(F)(F)C(F)(F)F,C(CCl)Cl,916079-45-3,"1-[[bis(1,1,2,2,2-pentafluoroethyl)phosphorylamino]-(1,1,2,2,2-pentafluoroethyl)phosphoryl]-1,1,2,2,2-pentafluoroethane",33.5,[33.5],"['[""[\'leito_acids\']""]']"
1594,C[C@@H]([NH3+])[C@@H](O)c1ccc(O)c(O)c1,O,0,0,8.75,[8.75],"['[""[\'hunt_et_al\']""]']"
1595,COc1ccc([NH3+])cc1,O,0,0,5.31,[5.31],"['[""[\'hunt_et_al\']""]']"
1596,N#Cc1ccc(OCC(=O)O)cc1,O,0,0,2.93,[2.93],"['[""[\'hunt_et_al\']""]']"
1597,Cc1ccc(C[NH+](C)C)cc1,O,0,0,9.22,[9.22],"['[""[\'hunt_et_al\']""]']"
1598,CN(C)[P+](N)(N(C)C)N(C)C,C1CCOC1,-,amino-tris(dimethylamino)phosphanium,19.7,[19.7],"['[""[\'Bases_pKa_values_MeCN_DMSO_THF_Water.pdf\']""]']"
1599,CN(C)CCC[NH+](C)C,O,-,3-(dimethylamino)propyl-dimethylazanium,10.6,[10.6],"['[""[\'Bases_pKa_values_MeCN_DMSO_THF_Water.pdf\']""]']"
1600,O=C(CN1C2=[NH+]CCN2c2ccccc21)c1ccc(Cl)cc1,O,0,0,9.1,[9.1],"['[""[\'hunt_et_al\']""]']"
1601,O=S(=O)(Cc1ccc(C(F)(F)F)cc1)C(F)(F)F,CS(=O)C,194222-97-4,1-(trifluoromethyl)-4-(trifluoromethylsulfonylmethyl)benzene,11.95,[11.95],"['[""[\'Ejoc202001649-sup-00001-misc_information.pdf\']""]']"
1602,COc1ccccc1N1CCN(CCCCNC(=O)c2ccc(-c3cscn3)cc2)CC1,CC#N,1580000-17-4,"N-[4-[4-(2-methoxyphenyl)piperazin-1-yl]butyl]-4-(1,3-thiazol-4-yl)benzamide",24.03,[24.03],"['[""[\'Ejoc202001649-sup-00001-misc_information.pdf\']""]']"
1603,CC1=[NH+]CC(C)(C)S1,O,0,0,5.67,[5.67],"['[""[\'hunt_et_al\']""]']"
1604,N#CC1c2ccccc2-c2ccccc21,CS(=O)C,1529-40-4,9H-fluorene-9-carbonitrile,8.3,"[8.3, 8.3]","['[""[\'a_unified_view_to_bronsted_acidity_scales.pdf\', \'Ejoc202001649-sup-00001-misc_information.pdf\']""]']"
1605,CCCC[NH3+],CC#N,-,butylazanium,18.26,[18.26],"['[""[\'Bases_pKa_values_MeCN_DMSO_THF_Water.pdf\']""]']"
1606,Oc1ccc2ccccc2c1/N=N/c1ccccn1,O,0,0,11.2,[11.2],"['[""[\'hunt_et_al\']""]']"
1607,[NH3+]CCO,O,0,0,9.51,[9.51],"['[""[\'hunt_et_al\']""]']"
1608,Fc1c(F)c(F)c(C2c3ccccc3-c3ccccc32)c(F)c1F,CS(=O)C,73482-93-6,"9-(2,3,4,5,6-pentafluorophenyl)-9H-fluorene",14.8,[14.8],"['[""[\'Ejoc202001649-sup-00001-misc_information.pdf\']""]']"
1609,CC[C@@H]1CCC[N@H+]1C,O,0,0,9.78,[9.78],"['[""[\'hunt_et_al\']""]']"
1610,CC[N@H+](C)c1ccccc1,O,0,0,6.02,[6.02],"['[""[\'hunt_et_al\']""]']"
1611,COC(=O)C[C@@H](C(=O)O)c1ccccc1,O,0,0,4.05,[4.05],"['[""[\'hunt_et_al\']""]']"
1612,COc1ccc(OC)c(C[C@@H]([NH3+])CO)c1,O,0,0,9.18,[9.18],"['[""[\'hunt_et_al\']""]']"
1613,Oc1cncnc1,O,0,0,6.8,[6.8],"['[""[\'hunt_et_al\']""]']"
1614,O=C(O)COc1ccc(Cl)cc1Cl,O,0,0,2.64,[2.64],"['[""[\'hunt_et_al\']""]']"
1615,[NH3+]CCc1ccccc1,O,0,0,9.84,[9.84],"['[""[\'hunt_et_al\']""]']"
1616,O=C(O)CC(=O)O,O,0,0,2.85,[2.85],"['[""[\'hunt_et_al\']""]']"
1617,c1cncc(C[NH+]2CCCC2)c1,O,0,0,8.36,[8.36],"['[""[\'hunt_et_al\']""]']"
1618,O=[N+]([O-])c1cc([N+](=O)[O-])c(Nc2c([N+](=O)[O-])cc([N+](=O)[O-])cc2[N+](=O)[O-])c([N+](=O)[O-])c1,CN(C)C=O,131-73-7,"2,4,6-trinitro-N-(2,4,6-trinitrophenyl)aniline",1.28,[1.28],"['[""[\'Ejoc202001649-sup-00001-misc_information.pdf\']""]']"
1619,CCc1[nH]cc[nH+]1,O,0,0,7.8,[7.8],"['[""[\'hunt_et_al\']""]']"
1620,O=[N+]([O-])c1cccc([NH2+][C@H]2CCc3ccccc32)c1,O,0,0,-0.46,[-0.46],"['[""[\'hunt_et_al\']""]']"
1621,COc1ccc(NS(=O)(=O)c2ccccc2)cc1,O,0,0,8.7,[8.7],"['[""[\'hunt_et_al\']""]']"
1622,C[NH2+]CCCN1c2ccccc2CCc2ccccc21,O,0,0,10.23,"[10.3, 10.16]","['[""[\'hunt_et_al\']"", ""[\'hunt_et_al\']""]']"