Solute SMILES,Solvent SMILES,Solute CAS,Solute IUPAC,pKa (avg),pKa (all),Source (all)
[H+].[B-](F)(F)(F)F,C(CCl)Cl,16872-11-0,hydron;tetrafluoroborate,35,[35.0],['leito_acids']
[H+].FC(F)(F)[B-](C#N)(C(F)(F)F)C(F)(F)F,C(CCl)Cl,863678-02-8,,35.7,[35.7],['leito_acids']
[H+].N#C[B-](C#N)(C#N)C#N,C(CCl)Cl,623575-99-5,,31.7,[31.7],['leito_acids']
C(#N)C(C1=C(C2=C(C(=C1F)F)C(=C(C(=C2F)F)F)F)F)C3=C(C4=C(C(=C3F)F)C(=C(C(=C4F)F)F)F)F,CCCCCCC,62325-38-6,"2,2-bis(1,3,4,5,6,7,8-heptafluoronaphthalen-2-yl)acetonitrile",-0.68,[-0.68],['pKa_values_of_acids_and_bases_in_MeCN_DCE_DMSO_H2O_THF_C7_DME.pdf']
C1(C2=C(C3=C1C(=C(C(=C3F)F)F)F)C(=C(C(=C2F)F)F)F)C4=C(C(=C(C(=C4F)F)F)F)F,CCCCCCC,63264-80-2,"1,2,3,4,5,6,7,8-octafluoro-9-(2,3,4,5,6-pentafluorophenyl)-9H-fluorene",0,[0.0],['pKa_values_of_acids_and_bases_in_MeCN_DCE_DMSO_H2O_THF_C7_DME.pdf']
C1(C2=C(C3=C1C(=C(C(=C3F)F)F)F)C(=C(C(=C2F)F)F)F)C4=C(C(=C(C(=C4F)F)F)F)F,COCCOC.COCCOC,63264-80-2,"1,2,3,4,5,6,7,8-octafluoro-9-(2,3,4,5,6-pentafluorophenyl)-9H-fluorene",5.3,[5.3],['pKa_values_of_acids_and_bases_in_MeCN_DCE_DMSO_H2O_THF_C7_DME.pdf']
C1=CC=C(C=C1)C(C#N)C2=C(C(=C(C(=C2F)F)F)F)F,COCCOC.COCCOC,42238-33-5,"2-(2,3,4,5,6-pentafluorophenyl)-2-phenylacetonitrile",11.8,[11.8],['pKa_values_of_acids_and_bases_in_MeCN_DCE_DMSO_H2O_THF_C7_DME.pdf']
FC(F)(F)[S](=O)(=O)N[P]1(=O)OC2=C3C=C(C=C2C4=CC(=CC(=C4)C5=CC=CC=C5)C6CC=CC=C6)[C]78=C9C%10=C%11[C-]7[Fe++]89%10%11%12%13%14%15[C-]%16C%12=C%13C%14=[C]%15%16C%17=CC3=C(O1)C(=C%17)C%18=CC(=CC(=C%18)C%19=CC=CC=C%19)C%20=CC=CC=C%20,CC#N,1630924-73-0,,7,[7.0],['leito_acids']
FC1=C(F)C(=C(C(C#N)C2=C(F)C(=C(C(=C2F)F)C(F)(F)F)F)C(=C1F)F)F,COCCOC.COCCOC,42238-35-7,"2-(2,3,4,5,6-pentafluorophenyl)-2-[2,3,5,6-tetrafluoro-4-(trifluoromethyl)phenyl]acetonitrile",3.9,[3.9],['pKa_values_of_acids_and_bases_in_MeCN_DCE_DMSO_H2O_THF_C7_DME.pdf']
FC1=C(F)C(=C(C(C#N)C2=C(F)C(=C(C(=C2F)F)C(F)(F)F)F)C(=C1F)F)F,CCCCCCC,42238-35-7,"2-(2,3,4,5,6-pentafluorophenyl)-2-[2,3,5,6-tetrafluoro-4-(trifluoromethyl)phenyl]acetonitrile",-1.39,[-1.39],['pKa_values_of_acids_and_bases_in_MeCN_DCE_DMSO_H2O_THF_C7_DME.pdf']
FC1=C(F)C(=C(C(C#N)C2=C(F)C(=C(F)C(=C2F)F)F)C(=C1F)F)F,CCCCCCC,42238-34-6,"2,2-bis(2,3,4,5,6-pentafluorophenyl)acetonitrile",1.8,[1.8],['pKa_values_of_acids_and_bases_in_MeCN_DCE_DMSO_H2O_THF_C7_DME.pdf']
FC1=C(F)C(=C(C(C#N)C2=C(F)C(=C(F)C(=C2F)F)F)C(=C1F)F)F,COCCOC.COCCOC,42238-34-6,"2,2-bis(2,3,4,5,6-pentafluorophenyl)acetonitrile",6.4,[6.4],['pKa_values_of_acids_and_bases_in_MeCN_DCE_DMSO_H2O_THF_C7_DME.pdf']
O[P]1(=O)OC2=C3C=C(C=C2C4=CC(=CC(=C4)C5=CC=CC=C5)C6CC=CC=C6)[C]78=C9C%10=C%11[C-]7[Fe++]89%10%11%12%13%14%15[C-]%16C%12=C%13C%14=[C]%15%16C%17=CC3=C(O1)C(=C%17)C%18=CC(=CC(=C%18)C%19=CC=CC=C%19)C%20=CC=CC=C%20,CC#N,1609325-04-3,,13.9,[13.9],['leito_acids']
O[P]1(=O)OC2=C3C=C(C=C2C4=CC(=CC(=C4)C5=CC=CC=C5)C6CC=CC=C6)C7=CC=CC8=C9C=CC=C(C%10=CC3=C(O1)C(=C%10)C%11=CC(=CC(=C%11)C%12=CC=CC=C%12)C%13=CC=CC=C%13)C9=C78,CC#N,1630950-45-6,,13.3,[13.3],['leito_acids']