,Solute SMILES,Solvent SMILES,Solute CAS,Solute IUPAC,pKa (avg),pKa (all),Source (all),Acid type,Solvent name
1493,N#CC(c1c(F)c(F)c2c(F)c(F)c(F)c(F)c2c1F)c1c(F)c(F)c2c(F)c(F)c(F)c(F)c2c1F,C(CCl)Cl,62325-38-6,"2,2-bis(1,3,4,5,6,7,8-heptafluoronaphthalen-2-yl)acetonitrile",53.26666667,"[53.0, 53.4, 53.4]","[Kutt et al., Tetrahedron Lett., 2018., Kutt et al., Eur. J. Org. Chem., 2021, 2021 (9), 1407-1419., Paenurk et al., Chem. Sci., 2017, 8, 6964-6973.]",C-H acid,DCE
1494,O=[N+]([O-])c1cccc([N+](=O)[O-])c1O,CC#N,573-56-8,"2,6-dinitrophenol",16.74,"[16.74, 16.74]","[Kutt et al., Eur. J. Org. Chem., 2021, 2021 (9), 1407-1419., Kutt et al., Eur. J. Org. Chem., 2021, 2021 (9), 1407-1419.]",phenol,acetonitrile
1495,Cc1cc(C)cc([NH2+][C@H]2CCc3ccccc32)c1,O,0,0,1.3,[1.3],"[Hunt et al.. J. Chem. Inf. Model, 2020, 60 (6), 2989-2997.]",protonated amine,water
1496,C[NH+](C)C,CS(=O)C,,trimethylazanium,8.4,[8.4],"[Tshepelvitsh et al., Eur. J. Org. Chem., 2019, 6735-6748.]",protonated amine,DMSO
1497,CN1CC[NH+](C)CC1,C1CCOC1,-,"1,4-dimethylpiperazin-1-ium",12.4,[12.4],"[Tshepelvitsh et al., Eur. J. Org. Chem., 2019, 6735-6748.]",protonated amine,THF
1498,CCn1cc(C(=O)O)c(=O)c2cc(F)c(N3CC[NH2+]CC3)nc21,O,0,0,7.48,"[8.76, 6.2]","[Hunt et al.. J. Chem. Inf. Model, 2020, 60 (6), 2989-2997. ,   Hunt et al.. J. Chem. Inf. Model, 2020, 60 (6), 2989-2997.]",protonated amine,water
1499,C[C@@H]([NH3+])CCCc1ccc(O)cc1,O,0,0,9.4,[9.4],"[Hunt et al.. J. Chem. Inf. Model, 2020, 60 (6), 2989-2997.]",protonated amine,water
1500,O=C([O-])[C@H](c1ccccc1)N1CCC(C[NH+]2CCC(Oc3ccc(Cl)c(Cl)c3)CC2)CC1,O,0,0,9.6,[9.6],"[Hunt et al.. J. Chem. Inf. Model, 2020, 60 (6), 2989-2997.]",protonated amine,water
1501,CCCC(=O)SCC[NH+](C)C,O,0,0,8.32,[8.32],"[Hunt et al.. J. Chem. Inf. Model, 2020, 60 (6), 2989-2997.]",protonated amine,water
1502,c1ccc([C@@H]2CCC[NH2+]2)cc1,O,0,0,9.6,[9.6],"[Hunt et al.. J. Chem. Inf. Model, 2020, 60 (6), 2989-2997.]",protonated amine,water
1503,Fc1nc(F)c(F)c(Nc2ccccc2)c1F,CS(=O)C,39077-43-5,"2,3,5,6-tetrafluoro-N-phenylpyridin-4-amine",8.3,[8.3],"[Kutt et al., Eur. J. Org. Chem., 2021, 2021 (9), 1407-1419.]",amine,DMSO
1504,CN(C)CC[NH+](C)C,CC#N,-,2-(dimethylamino)ethyl-dimethylazanium,18.69,[18.69],"[Tshepelvitsh et al., Eur. J. Org. Chem., 2019, 6735-6748.]",protonated amine,acetonitrile
1505,c1ccc2[nH+]c(-c3cscn3)[nH]c2c1,O,,"4-(1H-benzimidazol-3-ium-2-yl)-1,3-thiazole",4.64,[4.64],"[Lokov et al., Eur. J. Org. Chem., 2017, 30, 4475-4489.]",protonated amine,water
1506,Nc1ncc(-c2ccc(Br)cc2)c[nH+]1,O,0,0,3.06,[3.06],"[Hunt et al.. J. Chem. Inf. Model, 2020, 60 (6), 2989-2997.]",protonated amine,water
1507,N[NH3+],O,18500-32-8,aminoazanium,7.96,[7.96],"[Tshepelvitsh et al., Eur. J. Org. Chem., 2019, 6735-6748.]",inorganic,water
1508,O=C(O)c1cc(/N=N/c2ccccc2)ccc1O,O,0,0,2.3,[2.3],"[Hunt et al.. J. Chem. Inf. Model, 2020, 60 (6), 2989-2997.]",carboxylic acid,water
1509,[NH3+]c1ccccc1-c1ccccc1,O,0,0,3.82,[3.82],"[Hunt et al.. J. Chem. Inf. Model, 2020, 60 (6), 2989-2997.]",protonated amine,water
1510,O=C(O)c1ccc([N+](=O)[O-])c([N+](=O)[O-])c1,O,0,0,2.82,[2.82],"[Hunt et al.. J. Chem. Inf. Model, 2020, 60 (6), 2989-2997.]",carboxylic acid,water
1511,Cc1cc(O)cc(C)c1C#N,O,0,0,8.21,[8.21],"[Hunt et al.. J. Chem. Inf. Model, 2020, 60 (6), 2989-2997.]",phenol,water
1512,O=S(=O)(C(c1ccccc1)S(=O)(=O)C(F)(F)F)C(F)(F)F,CC#N,40906-82-9,bis(trifluoromethylsulfonyl)methylbenzene,7.802,"[7.85, 7.85, 7.73, 7.73, 7.85]","[Eckert et al., J. Comput. Chem., 2009, 30, 799-810.,  Kutt et al., J. Org. Chem., 2011, 76, 391-395., Kutt et al., Eur. J. Org. Chem., 2021, 2021 (9), 1407-1419., Kutt et al., Eur. J. Org. Chem., 2021, 2021 (9), 1407-1419., Paenurk et al., Chem. Sci., 2017, 8, 6964-6973.]",C-H acid,acetonitrile
1513,CC[NH+](CC)CCOC(=O)c1ccc(Br)cc1,O,0,0,8.12,[8.12],"[Hunt et al.. J. Chem. Inf. Model, 2020, 60 (6), 2989-2997.]",protonated amine,water
1514,C[N+](C)(C)CCCc1cccc(O)c1,O,0,0,9.64,[9.64],"[Hunt et al.. J. Chem. Inf. Model, 2020, 60 (6), 2989-2997.]",phenol,water
1515,CC[NH+](CC)Cc1ccccc1,O,0,0,9.44,[9.44],"[Hunt et al.. J. Chem. Inf. Model, 2020, 60 (6), 2989-2997.]",protonated amine,water
1516,Cn1c([S@@](=O)Cc2cccc[nH+]2)nc2ccccc21,O,0,0,2.6,[2.6],"[Hunt et al.. J. Chem. Inf. Model, 2020, 60 (6), 2989-2997.]",protonated amine,water
1517,CCOC(=O)CCCC[NH3+],O,0,0,10.5,[10.5],"[Hunt et al.. J. Chem. Inf. Model, 2020, 60 (6), 2989-2997.]",protonated amine,water
1518,NS(=O)(=O)c1ccc(F)cc1,CN(C)C=O,402-46-0,4-fluorobenzenesulfonamide,16.67,[16.67],"[Kutt et al., Eur. J. Org. Chem., 2021, 2021 (9), 1407-1419.]",amine,DMF
1519,O=[N+]([O-])c1cc([N+](=O)[O-])c(O)c([N+](=O)[O-])c1O,C(CCl)Cl,82-71-3,"2,4,6-trinitrobenzene-1,3-diol",44.1,[44.1],"[Paenurk et al., Chem. Sci., 2017, 8, 6964-6973.]",phenol,DCE
1520,[NH3+]c1ccccc1Cl,CC#N,,(2-chlorophenyl)azanium,7.86,[7.86],"[Lokov et al., Eur. J. Org. Chem., 2017, 30, 4475-4489.]",protonated amine,acetonitrile
1521,O=C(Nc1ccc([NH+]2CCOCC2)c(F)c1)c1nnc(Nc2ccccc2F)o1,O,0,0,6.17,[6.17],"[Hunt et al.. J. Chem. Inf. Model, 2020, 60 (6), 2989-2997.]",protonated amine,water
1522,CC(=O)CCC(=O)O,O,0,0,4.64,[4.64],"[Hunt et al.. J. Chem. Inf. Model, 2020, 60 (6), 2989-2997.]",carboxylic acid,water
1523,[NH3+]Cc1ccccc1,CS(=O)C,-,benzylazanium,10.16,[10.16],"[Tshepelvitsh et al., Eur. J. Org. Chem., 2019, 6735-6748.]",protonated amine,DMSO
1524,CC1(C)C[NH2+]CC(C)(C)C1,O,0,0,10.1,[10.1],"[Hunt et al.. J. Chem. Inf. Model, 2020, 60 (6), 2989-2997.]",protonated amine,water
1525,CCO[Si](C[NH3+])(OCC)OCC,O,0,0,8.34,[8.34],"[Hunt et al.. J. Chem. Inf. Model, 2020, 60 (6), 2989-2997.]",protonated amine,water
1526,Oc1c(/N=N/c2nccs2)ccc2ccccc12,O,0,0,9.1,[9.1],"[Hunt et al.. J. Chem. Inf. Model, 2020, 60 (6), 2989-2997.]",phenol,water
1527,CC(C)C([NH3+])C(C)C,O,0,0,10.23,[10.23],"[Hunt et al.. J. Chem. Inf. Model, 2020, 60 (6), 2989-2997.]",protonated amine,water
1528,[NH3+]c1ccc([N+](=O)[O-])c([N+](=O)[O-])c1,O,0,0,-1.2,[-1.2],"[Hunt et al.. J. Chem. Inf. Model, 2020, 60 (6), 2989-2997.]",protonated amine,water
1529,C[NH+](C)CCc1ccncc1,O,0,0,8.7,[8.7],"[Hunt et al.. J. Chem. Inf. Model, 2020, 60 (6), 2989-2997.]",protonated amine,water
1530,CCCCNc1ccc(C(=O)OCC[NH+](C)C)cc1,O,0,0,8.5,[8.5],"[Hunt et al.. J. Chem. Inf. Model, 2020, 60 (6), 2989-2997.]",protonated amine,water
1531,Oc1ccc2nccnc2c1,O,0,0,7.94,[7.94],"[Hunt et al.. J. Chem. Inf. Model, 2020, 60 (6), 2989-2997.]",phenol,water
1532,O=[N+]([O-])c1ccc(S(=O)(=O)O)c([N+](=O)[O-])c1,C(CCl)Cl,89-02-1,"2,4-dinitrobenzenesulfonic acid",36,"[36.0, 36.0]","[Kutt et al., Eur. J. Org. Chem., 2021, 2021 (9), 1407-1419., Paenurk et al., Chem. Sci., 2017, 8, 6964-6973.]",sulfonic acid,DCE
1533,[NH3+]CCC=C(Cl)Cl,O,0,0,10.12,[10.12],"[Hunt et al.. J. Chem. Inf. Model, 2020, 60 (6), 2989-2997.]",protonated amine,water
1534,CN(C)[P+](NC(C)(C)C)(N(C)C)N(C)C,CS(=O)C,-,(tert-butylamino)-tris(dimethylamino)phosphanium,15.7,[15.7],"[Tshepelvitsh et al., Eur. J. Org. Chem., 2019, 6735-6748.]",amine,DMSO
1535,[NH3+]c1cc([N+](=O)[O-])cc2ccccc12,O,0,0,2.07,[2.07],"[Hunt et al.. J. Chem. Inf. Model, 2020, 60 (6), 2989-2997.]",protonated amine,water
1536,O=C(O)CI,O,0,0,3.18,[3.18],"[Hunt et al.. J. Chem. Inf. Model, 2020, 60 (6), 2989-2997.]",carboxylic acid,water
1537,c1ccc2[nH]ccc2c1,CC#N,120-72-9,1H-indole,32.57,[32.57],"[Kutt et al., Eur. J. Org. Chem., 2021, 2021 (9), 1407-1419.]",amine,acetonitrile
1538,Cc1ccc(S)cc1,O,0,0,6.82,[6.82],"[Hunt et al.. J. Chem. Inf. Model, 2020, 60 (6), 2989-2997.]",thiol,water
1539,C[C@@H]1CCCC[C@@H]1[NH3+],O,0,0,10.5,[10.5],"[Hunt et al.. J. Chem. Inf. Model, 2020, 60 (6), 2989-2997.]",protonated amine,water
1540,[NH4+],CS(=O)C,14798-03-9,azanium,10.5,[10.5],"[Tshepelvitsh et al., Eur. J. Org. Chem., 2019, 6735-6748.]",inorganic,DMSO
1541,O=[N+]([O-])c1ccc2[nH]ccc2c1,CC#N,6146-52-7,5-nitro-1H-indole,28.18,"[28.18, 28.18]","[Kutt et al., Eur. J. Org. Chem., 2021, 2021 (9), 1407-1419., Kutt et al., Eur. J. Org. Chem., 2021, 2021 (9), 1407-1419.]",amine,acetonitrile
1542,O=C(Nc1ccc([N+](=O)[O-])cc1O)Nc1ccccc1Br,O,0,0,7.7,[7.7],"[Hunt et al.. J. Chem. Inf. Model, 2020, 60 (6), 2989-2997.]",phenol,water
1543,NCCCCC[NH3+],CC#N,-,5-aminopentylazanium,19.14,[19.14],"[Tshepelvitsh et al., Eur. J. Org. Chem., 2019, 6735-6748.]",protonated amine,acetonitrile
1544,Cl,C(CCl)Cl,7647-01-0,chlorane,45.2,"[45.2, 45.2, 45.2]","[Kutt et al., Tetrahedron Lett., 2018., Kutt et al., Eur. J. Org. Chem., 2021, 2021 (9), 1407-1419., Paenurk et al., Chem. Sci., 2017, 8, 6964-6973.]",inorganic,DCE
1545,CNCC(=O)O,O,0,0,2.35,[2.35],"[Hunt et al.. J. Chem. Inf. Model, 2020, 60 (6), 2989-2997.]",carboxylic acid,water
1546,O=[N+]([O-])c1ccc(O)c([N+](=O)[O-])c1,CS(=O)C,51-28-5,"2,4-dinitrophenol",5.25,"[5.4, 5.1]","[Kutt et al., Tetrahedron Lett., 2018., Kutt et al., Eur. J. Org. Chem., 2021, 2021 (9), 1407-1419.]",phenol,DMSO
1547,COc1ccccc1[C@@H](O)C[NH2+]C(C)C,O,0,0,9.69,[9.69],"[Hunt et al.. J. Chem. Inf. Model, 2020, 60 (6), 2989-2997.]",protonated amine,water
1548,Nc1nccc[nH+]1,O,0,0,3.45,[3.45],"[Hunt et al.. J. Chem. Inf. Model, 2020, 60 (6), 2989-2997.]",protonated amine,water
1549,CC(C)(C)c1cc([NH3+])cc(C(C)(C)C)c1[N+](=O)[O-],O,0,0,2.93,[2.93],"[Hunt et al.. J. Chem. Inf. Model, 2020, 60 (6), 2989-2997.]",protonated amine,water
1550,N#CC(c1c(F)c(F)c(F)c(F)c1F)c1c(F)c(F)c(F)c(F)c1F,CC#N,42238-34-6,"2,2-bis(2,3,4,5,6-pentafluorophenyl)acetonitrile",21.096,"[21.1, 21.1, 21.09, 21.09, 21.1]","[Eckert et al., J. Comput. Chem., 2009, 30, 799-810., Kutt et al., Tetrahedron Lett., 2018., Kutt et al., Eur. J. Org. Chem., 2021, 2021 (9), 1407-1419., Kutt et al., Eur. J. Org. Chem., 2021, 2021 (9), 1407-1419., Paenurk et al., Chem. Sci., 2017, 8, 6964-6973.]",C-H acid,acetonitrile
1551,O=C(O)c1cccc(Oc2ccccc2)c1,O,0,0,3.95,[3.95],"[Hunt et al.. J. Chem. Inf. Model, 2020, 60 (6), 2989-2997.]",carboxylic acid,water
1552,O=C(O)COc1cccc(F)c1,O,0,0,3.07,[3.07],"[Hunt et al.. J. Chem. Inf. Model, 2020, 60 (6), 2989-2997.]",carboxylic acid,water
1553,CC(C)[NH2+]C[C@H](O)c1cccc(C#N)c1,O,0,0,9.33,[9.33],"[Hunt et al.. J. Chem. Inf. Model, 2020, 60 (6), 2989-2997.]",protonated amine,water
1554,CC[NH+](CC)[C@H](C)C(=O)c1ccccc1,O,0,0,8.8,[8.8],"[Hunt et al.. J. Chem. Inf. Model, 2020, 60 (6), 2989-2997.]",protonated amine,water
1555,N#CC(C#N)c1c(C(F)(F)F)cc(C(F)(F)F)c(C(F)(F)F)c1C(F)(F)F,C(CCl)Cl,1018330-49-8,"2-(2,3,4,6-tetrakis(trifluoromethyl)phenyl)malononitrile",44.2,"[44.2, 44.2]","[Kutt et al., Eur. J. Org. Chem., 2021, 2021 (9), 1407-1419., Paenurk et al., Chem. Sci., 2017, 8, 6964-6973.]",C-H acid,DCE
1556,Cc1cc(C)c([NH3+])c(C)c1,O,0,0,4.38,[4.38],"[Hunt et al.. J. Chem. Inf. Model, 2020, 60 (6), 2989-2997.]",protonated amine,water
1557,COc1c(O)cccc1C[NH3+],O,0,0,8.89,[8.89],"[Hunt et al.. J. Chem. Inf. Model, 2020, 60 (6), 2989-2997.]",protonated amine,water
1558,O=S(=O)(N=C(NS(=O)(=O)C(F)(F)F)c1ccc(Cl)cc1)C(F)(F)F,C(CCl)Cl,500721-95-9,"4-chloro-N,N'-bis(trifluoromethylsulfonyl)benzenecarboximidamide",32.7,[32.7],"[Paenurk et al., Chem. Sci., 2017, 8, 6964-6973.]",amine,DCE
1559,CCC[C@@H]1CCCC[NH2+]1,O,0,0,10.9,[10.9],"[Hunt et al.. J. Chem. Inf. Model, 2020, 60 (6), 2989-2997.]",protonated amine,water
1560,Cc1cc(C[N@@H+]2Cc3ccccc3C[C@H]2C(=O)Nc2ccc(Cl)cc2Cl)ccc1OCC(=O)[O-],O,0,0,6.2,[6.2],"[Hunt et al.. J. Chem. Inf. Model, 2020, 60 (6), 2989-2997.]",protonated amine,water
1561,O=C(O)c1ccc(O)c(O)c1,O,0,0,4.48,[4.48],"[Hunt et al.. J. Chem. Inf. Model, 2020, 60 (6), 2989-2997.]",carboxylic acid,water
1562,O=C(O)c1cccc(C(=O)O)c1,CC#N,121-91-5,"benzene-1,3-dicarboxylic acid",19.3,[19.3],"[Eckert et al., J. Comput. Chem., 2009, 30, 799-810.]",carboxylic acid,acetonitrile
1563,Cc1c(F)c(F)c(C(C#N)c2c(F)c(F)c(F)c(F)c2F)c(F)c1F,CC#N,52345-34-3,"2-(2,3,4,5,6-pentafluorophenyl)-2-(2,3,5,6-tetrafluoro-4-methylphenyl)acetonitrile",21.94,"[21.94, 21.94, 21.94]","[Paenurk et al., Chem. Sci., 2017, 8, 6964-6973., Kutt et al., Eur. J. Org. Chem., 2021, 2021 (9), 1407-1419., Paenurk et al., Chem. Sci., 2017, 8, 6964-6973.]",C-H acid,acetonitrile
1564,O=C(O)[C@H](c1ccccc1)N1CCC([NH+]2CCC(Oc3ccc(Cl)c(Cl)c3)CC2)CC1,O,0,0,9.1,[9.1],"[Hunt et al.. J. Chem. Inf. Model, 2020, 60 (6), 2989-2997.]",protonated amine,water
1565,OC(CCCCC(O)=S)=S,O,0,0,4.352,[4.352],"[Hunt et al.. J. Chem. Inf. Model, 2020, 60 (6), 2989-2997.]",hydroxyl alcohol,water
1566,C#CC(C)(C)[NH2+]C(C)(C)CC,O,0,0,9,[9.0],"[Hunt et al.. J. Chem. Inf. Model, 2020, 60 (6), 2989-2997.]",protonated amine,water
1567,Oc1ccccc1-c1ccccn1,O,0,0,9.98,[9.98],"[Hunt et al.. J. Chem. Inf. Model, 2020, 60 (6), 2989-2997.]",phenol,water
1568,N#CC(C#N)=C(Br)C(C#N)C#N,C(CCl)Cl,100125-09-5,"2-bromoprop-1-ene-1,1,3,3-tetracarbonitrile",33.2,[33.2],"[Paenurk et al., Chem. Sci., 2017, 8, 6964-6973.]",C-H acid,DCE
1569,O=[N+]([O-])c1ccc(O)cc1,CC#N,100-02-7,4-nitrophenol,20.7,[20.7],"[Eckert et al., J. Comput. Chem., 2009, 30, 799-810.]",phenol,acetonitrile
1570,[NH3+]c1ccc2[nH+]ccnc2n1,O,0,0,-2,"[-2.0, -2.0]","[Hunt et al.. J. Chem. Inf. Model, 2020, 60 (6), 2989-2997. ,   Hunt et al.. J. Chem. Inf. Model, 2020, 60 (6), 2989-2997.]",protonated amine,water
1571,CC1=CCCC[N@H+]1C,O,0,0,11.38,[11.38],"[Hunt et al.. J. Chem. Inf. Model, 2020, 60 (6), 2989-2997.]",protonated amine,water
1572,O=C(O)c1c(Br)cccc1CO,O,0,0,2.25,[2.25],"[Hunt et al.. J. Chem. Inf. Model, 2020, 60 (6), 2989-2997.]",carboxylic acid,water
1573,c1cnc[nH+]c1,CS(=O)C,-,pyrimidin-1-ium,0.55,[0.55],"[Tshepelvitsh et al., Eur. J. Org. Chem., 2019, 6735-6748.]",protonated amine,DMSO
1574,CC1(C)S[C@@H]2[C@H](NC(=O)[C@H]([NH3+])c3ccccc3)C(=O)N2[C@H]1C(=O)[O-],O,0,0,7.7,[7.7],"[Hunt et al.. J. Chem. Inf. Model, 2020, 60 (6), 2989-2997.]",protonated amine,water
1575,C[N+](C)(C)c1cccc(CC(=O)O)c1,O,0,0,3.66,[3.66],"[Hunt et al.. J. Chem. Inf. Model, 2020, 60 (6), 2989-2997.]",carboxylic acid,water
1576,CC(=O)Oc1ccccc1C(=O)O,O,0,0,3.5,[3.5],"[Hunt et al.. J. Chem. Inf. Model, 2020, 60 (6), 2989-2997.]",carboxylic acid,water
1577,NS(=O)(=O)c1cccc([N+](=O)[O-])c1,CS(=O)C,121-52-8,3-nitrobenzenesulfonamide,14.9,[14.9],"[Kutt et al., Eur. J. Org. Chem., 2021, 2021 (9), 1407-1419.]",amine,DMSO
1578,Oc1ccccc1,CN(C)C=O,108-95-2,phenol,18.4,[18.4],"[Kutt et al., Eur. J. Org. Chem., 2021, 2021 (9), 1407-1419.]",phenol,DMF
1579,O=[N+]([O-])c1ccc(S(=O)(=O)NS(=O)(=O)C(F)(F)F)cc1,CC#N,174788-91-1,4-nitro-N-(trifluoromethylsulfonyl)benzenesulfonamide,4.118333333,"[4.39, 4.04, 4.08, 4.08, 4.04, 4.08]","[Eckert et al., J. Comput. Chem., 2009, 30, 799-810., Kutt et al., Eur. J. Org. Chem., 2021, 2021 (9), 1407-1419.,  Kutt et al., J. Org. Chem., 2011, 76, 391-395., Paenurk et al., Chem. Sci., 2017, 8, 6964-6973., Kutt et al., Eur. J. Org. Chem., 2021, 2021 (9), 1407-1419., Paenurk et al., Chem. Sci., 2017, 8, 6964-6973.]",amine,acetonitrile
1580,N#Cc1ccc(O)cc1,O,0,0,7.95,[7.95],"[Hunt et al.. J. Chem. Inf. Model, 2020, 60 (6), 2989-2997.]",phenol,water
1581,N#CC(C#N)=C(C#N)C(C#N)C#N,C(CCl)Cl,45078-17-9,"prop-1-ene-1,1,2,3,3-pentacarbonitrile",29.7,[29.7],"[Paenurk et al., Chem. Sci., 2017, 8, 6964-6973.]",C-H acid,DCE
1582,N#Cc1c(F)c(F)c(N)c(F)c1F,CS(=O)C,17823-38-0,"4-amino-2,3,5,6-tetrafluorobenzonitrile",17.2,[17.2],"[Kutt et al., Eur. J. Org. Chem., 2021, 2021 (9), 1407-1419.]",amine,DMSO
1583,CC(=O)C(CC[NH+]1CCOCC1)(c1ccccc1)c1ccccc1,O,0,0,6.83,[6.83],"[Hunt et al.. J. Chem. Inf. Model, 2020, 60 (6), 2989-2997.]",protonated amine,water
1584,O=C(O)[C@H](c1ccccc1)N1CCC(C[NH+]2CCC(Oc3ccc(Cl)c(Cl)c3)CC2)CC1,O,0,0,6.3,"[3.0, 9.6]","[Hunt et al.. J. Chem. Inf. Model, 2020, 60 (6), 2989-2997. ,   Hunt et al.. J. Chem. Inf. Model, 2020, 60 (6), 2989-2997.]",protonated amine,water
1585,CCOC(=O)c1cnn(C)c1S(=O)(=O)NC(=O)Nc1nc(OC)cc(OC)n1,O,0,0,3.7,[3.7],"[Hunt et al.. J. Chem. Inf. Model, 2020, 60 (6), 2989-2997.]",amine,water
1586,[NH3+]C(CO)(CO)CO,O,0,0,8.08,[8.08],"[Hunt et al.. J. Chem. Inf. Model, 2020, 60 (6), 2989-2997.]",protonated amine,water
1587,N#CC(c1ccc(C(F)(F)F)cc1)c1c(F)c(F)c(F)c(F)c1F,CC#N,42238-35-7,2-(perfluorophenyl)-2-(4-(trifluoromethyl)phenyl)acetonitrile,18.135,"[18.14, 18.13]","[Eckert et al., J. Comput. Chem., 2009, 30, 799-810., Kutt et al., Eur. J. Org. Chem., 2021, 2021 (9), 1407-1419.]",C-H acid,acetonitrile
1588,Cc1cc([N+](=O)[O-])ccc1C(=O)O,O,0,0,2.95,[2.95],"[Hunt et al.. J. Chem. Inf. Model, 2020, 60 (6), 2989-2997.]",carboxylic acid,water
1589,COc1ccc(S(=O)(=O)NC(=O)N2CCC(N3CCC(Oc4ccc(Cl)c(Cl)c4)CC3)CC2)cc1,O,0,0,3.6,[3.6],"[Hunt et al.. J. Chem. Inf. Model, 2020, 60 (6), 2989-2997.]",amine,water
1590,Oc1cccc2c1CCCC2,O,0,0,10.28,[10.28],"[Hunt et al.. J. Chem. Inf. Model, 2020, 60 (6), 2989-2997.]",phenol,water
1591,CC(C)[N@H+](CC[N+]1(C)CCCCC1)c1ccccc1,O,0,0,3.26,[3.26],"[Hunt et al.. J. Chem. Inf. Model, 2020, 60 (6), 2989-2997.]",protonated amine,water
1592,O=C(NCC12CC3CC(CC(C3)C1)C2)c1ccnc(N2CC[NH2+]CC2)c1Cl,O,0,0,8.7,[8.7],"[Hunt et al.. J. Chem. Inf. Model, 2020, 60 (6), 2989-2997.]",protonated amine,water
1593,O=P(NP(=O)(C(F)(F)C(F)(F)F)C(F)(F)C(F)(F)F)(C(F)(F)C(F)(F)F)C(F)(F)C(F)(F)F,C(CCl)Cl,916079-45-3,"1-[[bis(1,1,2,2,2-pentafluoroethyl)phosphorylamino]-(1,1,2,2,2-pentafluoroethyl)phosphoryl]-1,1,2,2,2-pentafluoroethane",33.5,[33.5],"[Paenurk et al., Chem. Sci., 2017, 8, 6964-6973.]",amine,DCE
1594,C[C@@H]([NH3+])[C@@H](O)c1ccc(O)c(O)c1,O,0,0,8.75,[8.75],"[Hunt et al.. J. Chem. Inf. Model, 2020, 60 (6), 2989-2997.]",protonated amine,water
1595,COc1ccc([NH3+])cc1,O,0,0,5.31,[5.31],"[Hunt et al.. J. Chem. Inf. Model, 2020, 60 (6), 2989-2997.]",protonated amine,water
1596,N#Cc1ccc(OCC(=O)O)cc1,O,0,0,2.93,[2.93],"[Hunt et al.. J. Chem. Inf. Model, 2020, 60 (6), 2989-2997.]",carboxylic acid,water
1597,Cc1ccc(C[NH+](C)C)cc1,O,0,0,9.22,[9.22],"[Hunt et al.. J. Chem. Inf. Model, 2020, 60 (6), 2989-2997.]",protonated amine,water
1598,CN(C)[P+](N)(N(C)C)N(C)C,C1CCOC1,-,amino-tris(dimethylamino)phosphanium,19.7,[19.7],"[Tshepelvitsh et al., Eur. J. Org. Chem., 2019, 6735-6748.]",amine,THF
1599,CN(C)CCC[NH+](C)C,O,-,3-(dimethylamino)propyl-dimethylazanium,10.6,[10.6],"[Tshepelvitsh et al., Eur. J. Org. Chem., 2019, 6735-6748.]",protonated amine,water
1600,O=C(CN1C2=[NH+]CCN2c2ccccc21)c1ccc(Cl)cc1,O,0,0,9.1,[9.1],"[Hunt et al.. J. Chem. Inf. Model, 2020, 60 (6), 2989-2997.]",protonated amine,water
1601,O=S(=O)(Cc1ccc(C(F)(F)F)cc1)C(F)(F)F,CS(=O)C,194222-97-4,1-(trifluoromethyl)-4-(trifluoromethylsulfonylmethyl)benzene,11.95,[11.95],"[Kutt et al., Eur. J. Org. Chem., 2021, 2021 (9), 1407-1419.]",C-H acid,DMSO
1602,COc1ccccc1N1CCN(CCCCNC(=O)c2ccc(-c3cscn3)cc2)CC1,CC#N,1580000-17-4,"N-[4-[4-(2-methoxyphenyl)piperazin-1-yl]butyl]-4-(1,3-thiazol-4-yl)benzamide",24.03,[24.03],"[Kutt et al., Eur. J. Org. Chem., 2021, 2021 (9), 1407-1419.]",amine,acetonitrile
1603,CC1=[NH+]CC(C)(C)S1,O,0,0,5.67,[5.67],"[Hunt et al.. J. Chem. Inf. Model, 2020, 60 (6), 2989-2997.]",protonated amine,water
1604,N#CC1c2ccccc2-c2ccccc21,CS(=O)C,1529-40-4,9H-fluorene-9-carbonitrile,8.3,"[8.3, 8.3]","[Paenurk et al., Chem. Sci., 2017, 8, 6964-6973., Kutt et al., Eur. J. Org. Chem., 2021, 2021 (9), 1407-1419.]",C-H acid,DMSO
1605,CCCC[NH3+],CC#N,-,butylazanium,18.26,[18.26],"[Tshepelvitsh et al., Eur. J. Org. Chem., 2019, 6735-6748.]",protonated amine,acetonitrile
1606,Oc1ccc2ccccc2c1/N=N/c1ccccn1,O,0,0,11.2,[11.2],"[Hunt et al.. J. Chem. Inf. Model, 2020, 60 (6), 2989-2997.]",phenol,water
1607,[NH3+]CCO,O,0,0,9.51,[9.51],"[Hunt et al.. J. Chem. Inf. Model, 2020, 60 (6), 2989-2997.]",protonated amine,water
1608,Fc1c(F)c(F)c(C2c3ccccc3-c3ccccc32)c(F)c1F,CS(=O)C,73482-93-6,"9-(2,3,4,5,6-pentafluorophenyl)-9H-fluorene",14.8,[14.8],"[Kutt et al., Eur. J. Org. Chem., 2021, 2021 (9), 1407-1419.]",C-H acid,DMSO
1609,CC[C@@H]1CCC[N@H+]1C,O,0,0,9.78,[9.78],"[Hunt et al.. J. Chem. Inf. Model, 2020, 60 (6), 2989-2997.]",protonated amine,water
1610,CC[N@H+](C)c1ccccc1,O,0,0,6.02,[6.02],"[Hunt et al.. J. Chem. Inf. Model, 2020, 60 (6), 2989-2997.]",protonated amine,water
1611,COC(=O)C[C@@H](C(=O)O)c1ccccc1,O,0,0,4.05,[4.05],"[Hunt et al.. J. Chem. Inf. Model, 2020, 60 (6), 2989-2997.]",carboxylic acid,water