,Solute SMILES,Solvent SMILES,Solute CAS,Solute IUPAC,pKa (avg),pKa (all),Source (all),Acid type,Solvent name
1005,Nc1ccc([NH3+])nc1,O,0,0,6.48,[6.48],"[Hunt et al.. J. Chem. Inf. Model, 2020, 60 (6), 2989-2997.]",protonated amine,water
1006,Cc1ccc(S(=O)(=O)O)cc1,CC#N,104-15-4,4-methylbenzenesulfonic acid,8.41,"[8.45, 8.01, 8.5, 8.5, 8.5, 8.5]","[Eckert et al., J. Comput. Chem., 2009, 30, 799-810., Eckert et al., J. Comput. Chem., 2009, 30, 799-810.,  Kutt et al., J. Org. Chem., 2011, 76, 391-395., Kutt et al., Eur. J. Org. Chem., 2021, 2021 (9), 1407-1419., Kutt et al., Eur. J. Org. Chem., 2021, 2021 (9), 1407-1419., Paenurk et al., Chem. Sci., 2017, 8, 6964-6973.]",sulfonic acid,acetonitrile
1007,C[C@H](Oc1ccc(Oc2ncc(C(F)(F)F)cc2Cl)cc1)C(=O)O,O,0,0,2.9,[2.9],"[Hunt et al.. J. Chem. Inf. Model, 2020, 60 (6), 2989-2997.]",carboxylic acid,water
1008,C1CCC2=NCCC[NH+]2CC1,O,-,"3,4,5,6,7,8,9,10-octahydro-2H-pyrimido[1,2-a]azepin-5-ium",13.5,[13.5],"[Tshepelvitsh et al., Eur. J. Org. Chem., 2019, 6735-6748.]",protonated amine,water
1009,Cc1ccc(S(=O)(=O)Nc2c(C(=O)N[C@@H](C)C(C)(C)C)c(C)nn2C(C)(C)C)cc1,O,0,0,5.5,[5.5],"[Hunt et al.. J. Chem. Inf. Model, 2020, 60 (6), 2989-2997.]",amine,water
1010,C[NH2+]C[C@H](O)c1ccc(O)c(O)c1,O,0,0,8.71,[8.71],"[Hunt et al.. J. Chem. Inf. Model, 2020, 60 (6), 2989-2997.]",protonated amine,water
1011,[NH3+][C@@H]1CCc2ccccc2C1,O,0,0,9.93,[9.93],"[Hunt et al.. J. Chem. Inf. Model, 2020, 60 (6), 2989-2997.]",protonated amine,water
1012,O=C(O)COc1cc(Cl)c(Cl)cc1Cl,O,0,0,2.85,[2.85],"[Hunt et al.. J. Chem. Inf. Model, 2020, 60 (6), 2989-2997.]",carboxylic acid,water
1013,[NH3+]c1cc(Br)cc2ccccc12,O,0,0,2.67,[2.67],"[Hunt et al.. J. Chem. Inf. Model, 2020, 60 (6), 2989-2997.]",protonated amine,water
1014,[NH3+]c1cc(Cl)c(Cl)cc1Cl,O,0,0,1.09,[1.09],"[Hunt et al.. J. Chem. Inf. Model, 2020, 60 (6), 2989-2997.]",protonated amine,water
1015,O=[N+]([O-])c1ccc([NH2+]Cc2ccc(F)cc2)c([N+](=O)[O-])c1,O,0,0,-4.99,[-4.99],"[Hunt et al.. J. Chem. Inf. Model, 2020, 60 (6), 2989-2997.]",protonated amine,water
1016,C[N@@H+](c1ccccc1)C1CCCC1,O,0,0,6.71,[6.71],"[Hunt et al.. J. Chem. Inf. Model, 2020, 60 (6), 2989-2997.]",protonated amine,water
1017,O=C1c2ccccc2C(=O)c2c1cccc2S(=O)(=O)O,O,0,0,0.268,[0.268],"[Hunt et al.. J. Chem. Inf. Model, 2020, 60 (6), 2989-2997.]",sulfonic acid,water
1018,O=C(O)c1cc(Cl)ccc1O,O,0,0,2.63,[2.63],"[Hunt et al.. J. Chem. Inf. Model, 2020, 60 (6), 2989-2997.]",carboxylic acid,water
1019,Oc1nncc2ccccc12,O,0,0,11.99,[11.99],"[Hunt et al.. J. Chem. Inf. Model, 2020, 60 (6), 2989-2997.]",phenol,water
1020,O=Cc1ccc(O)cc1,O,0,0,7.62,[7.62],"[Hunt et al.. J. Chem. Inf. Model, 2020, 60 (6), 2989-2997.]",phenol,water
1021,[NH3+]c1cc(Cl)cc2ccccc12,O,0,0,2.69,[2.69],"[Hunt et al.. J. Chem. Inf. Model, 2020, 60 (6), 2989-2997.]",protonated amine,water
1022,O=S(=O)(O)C(F)(F)F,C(CCl)Cl,1493-13-6,trifluoromethanesulfonic acid,33.7,"[33.7, 33.7]","[Kutt et al., Tetrahedron Lett., 2018., Paenurk et al., Chem. Sci., 2017, 8, 6964-6973.]",sulfonic acid,DCE
1023,N#Cc1cccc(C(=O)O)c1,O,0,0,3.598,[3.598],"[Hunt et al.. J. Chem. Inf. Model, 2020, 60 (6), 2989-2997.]",carboxylic acid,water
1024,Nc1nc(-c2ccccn2)[nH+]c(N)c1Cc1ccc(Cl)cc1Cl,O,0,0,5.58,[5.58],"[Hunt et al.. J. Chem. Inf. Model, 2020, 60 (6), 2989-2997.]",protonated amine,water
1025,CCCc1cccc(CCC)c1O,O,0,0,11.25,[11.25],"[Hunt et al.. J. Chem. Inf. Model, 2020, 60 (6), 2989-2997.]",phenol,water
1026,CCOC(=O)C(C#N)c1c(F)c(F)nc(F)c1F,CS(=O)C,55810-61-2,"ethyl 2-cyano-2-(2,3,5,6-tetrafluoropyridin-4-yl)acetate",3.2,"[3.2, 3.2]","[Paenurk et al., Chem. Sci., 2017, 8, 6964-6973., Kutt et al., Eur. J. Org. Chem., 2021, 2021 (9), 1407-1419.]",C-H acid,DMSO
1027,C1CC[C@H]2[NH2+]CCC[C@H]2C1,O,0,0,11.29,[11.29],"[Hunt et al.. J. Chem. Inf. Model, 2020, 60 (6), 2989-2997.]",protonated amine,water
1028,c1ccc(CSc2[nH]c3ccccc3[nH+]2)cc1,O,0,0,4.2,[4.2],"[Hunt et al.. J. Chem. Inf. Model, 2020, 60 (6), 2989-2997.]",protonated amine,water
1029,O=C(O)c1ccc([N+](=O)[O-])cc1Cl,O,0,0,1.96,[1.96],"[Hunt et al.. J. Chem. Inf. Model, 2020, 60 (6), 2989-2997.]",carboxylic acid,water
1030,O=C(O)CO,O,0,0,3.83,[3.83],"[Hunt et al.. J. Chem. Inf. Model, 2020, 60 (6), 2989-2997.]",carboxylic acid,water
1031,O=C(O)c1ccc(O)c2ncccc12,O,0,0,4.8,[4.8],"[Hunt et al.. J. Chem. Inf. Model, 2020, 60 (6), 2989-2997.]",carboxylic acid,water
1032,O=C(O)Cc1cccc(I)c1,O,0,0,4.16,[4.16],"[Hunt et al.. J. Chem. Inf. Model, 2020, 60 (6), 2989-2997.]",carboxylic acid,water
1033,Cc1cccc[nH+]1,CC#N,,2-methylpyridin-1-ium,13.32,[13.32],"[Lokov et al., Eur. J. Org. Chem., 2017, 30, 4475-4489.]",protonated amine,acetonitrile
1034,O=C(O)c1cccc(Br)c1CO,O,0,0,3.28,[3.28],"[Hunt et al.. J. Chem. Inf. Model, 2020, 60 (6), 2989-2997.]",carboxylic acid,water
1035,C#CC[NH+](CC)CC,O,0,0,7.97,[7.97],"[Hunt et al.. J. Chem. Inf. Model, 2020, 60 (6), 2989-2997.]",protonated amine,water
1036,N#CC1c2ccccc2-c2ccccc21,O,1529-40-4,9H-fluorene-9-carbonitrile,10.7,[10.7],"[Kutt et al., Eur. J. Org. Chem., 2021, 2021 (9), 1407-1419.]",C-H acid,water
1037,Nc1ccccc1S,O,0,0,6.59,[6.59],"[Hunt et al.. J. Chem. Inf. Model, 2020, 60 (6), 2989-2997.]",thiol,water
1038,NCCCC[NH3+],CC#N,-,4-aminobutylazanium,20.12,[20.12],"[Tshepelvitsh et al., Eur. J. Org. Chem., 2019, 6735-6748.]",protonated amine,acetonitrile
1039,[NH3+]c1ccc(Sc2ccccc2)cc1,O,0,0,3.8,[3.8],"[Hunt et al.. J. Chem. Inf. Model, 2020, 60 (6), 2989-2997.]",protonated amine,water
1040,C[NH+](C)Cc1cccc([N+](=O)[O-])c1,O,0,0,8.2,[8.2],"[Hunt et al.. J. Chem. Inf. Model, 2020, 60 (6), 2989-2997.]",protonated amine,water
1041,OC(C(F)(F)F)(C(F)(F)F)C(F)(F)F,O,1/2/78,"1,1,1,3,3,3-hexafluoro-2-(trifluoromethyl)propan-2-ol",5.33,[5.33],"[Kutt et al., Eur. J. Org. Chem., 2021, 2021 (9), 1407-1419.]",hydroxyl alcohol,water
1042,CC(C)[NH2+]C[C@@H](O)COc1cccc2ccccc12,O,0,0,9.525,"[9.6, 9.45]","[Hunt et al.. J. Chem. Inf. Model, 2020, 60 (6), 2989-2997., Hunt et al.. J. Chem. Inf. Model, 2020, 60 (6), 2989-2997.]",protonated amine,water
1043,CC(C)[NH2+]C[C@@H](O)COc1ccc(CC(N)=O)cc1,O,0,0,9.6,"[9.6, 9.6]","[Hunt et al.. J. Chem. Inf. Model, 2020, 60 (6), 2989-2997., Hunt et al.. J. Chem. Inf. Model, 2020, 60 (6), 2989-2997.]",protonated amine,water
1044,CCCCCC[N@@H+](CCO)C[C@@H](O)CC,O,0,0,9,[9.0],"[Hunt et al.. J. Chem. Inf. Model, 2020, 60 (6), 2989-2997.]",protonated amine,water
1045,Cc1ccccc1S,O,0,0,6.64,[6.64],"[Hunt et al.. J. Chem. Inf. Model, 2020, 60 (6), 2989-2997.]",thiol,water
1046,[NH3+]c1c(F)c(F)c(F)c(F)c1F,O,0,0,-0.28,[-0.28],"[Hunt et al.. J. Chem. Inf. Model, 2020, 60 (6), 2989-2997.]",protonated amine,water
1047,CC1=C(C)C(C)(C)[NH+](C)C1(C)C,O,0,0,10.8,[10.8],"[Hunt et al.. J. Chem. Inf. Model, 2020, 60 (6), 2989-2997.]",protonated amine,water
1048,C[N@@H+](c1ccccc1)C1CCCCC1,O,0,0,6.35,[6.35],"[Hunt et al.. J. Chem. Inf. Model, 2020, 60 (6), 2989-2997.]",protonated amine,water
1049,C[NH2+]C,C1CCOC1,49784-85-2,dimethylazanium,13.3,[13.3],"[Tshepelvitsh et al., Eur. J. Org. Chem., 2019, 6735-6748.]",protonated amine,THF
1050,OCC[NH+](CCO)CCO,O,0,0,7.762,[7.762],"[Hunt et al.. J. Chem. Inf. Model, 2020, 60 (6), 2989-2997.]",protonated amine,water
1051,CSc1cccc(O)c1,O,0,0,9.53,[9.53],"[Hunt et al.. J. Chem. Inf. Model, 2020, 60 (6), 2989-2997.]",phenol,water
1052,[NH3+][C@H](Cc1c[nH]c2ccccc12)C(=O)[O-],O,0,0,9.1,[9.1],"[Hunt et al.. J. Chem. Inf. Model, 2020, 60 (6), 2989-2997.]",protonated amine,water
1053,Cc1cc(C)nc(NC(=O)NS(=O)(=O)c2ccccc2C(=O)OC2COC2)n1,O,0,0,5.1,[5.1],"[Hunt et al.. J. Chem. Inf. Model, 2020, 60 (6), 2989-2997.]",amine,water
1054,O=C(O)/C=C/c1ccc(Cl)cc1,O,0,0,4.41,[4.41],"[Hunt et al.. J. Chem. Inf. Model, 2020, 60 (6), 2989-2997.]",carboxylic acid,water
1055,N#CC(c1c(F)c(F)c2c(F)c(F)c(F)c(F)c2c1F)c1c(F)c(F)c2c(F)c(F)c(F)c(F)c2c1F,CC#N,62325-38-6,"2,2-bis(1,3,4,5,6,7,8-heptafluoronaphthalen-2-yl)acetonitrile",19.32,"[19.32, 19.32, 19.32, 19.32, 19.32, 19.32]","[Eckert et al., J. Comput. Chem., 2009, 30, 799-810., Kutt et al., Tetrahedron Lett., 2018., Paenurk et al., Chem. Sci., 2017, 8, 6964-6973., Kutt et al., Eur. J. Org. Chem., 2021, 2021 (9), 1407-1419., Kutt et al., Eur. J. Org. Chem., 2021, 2021 (9), 1407-1419., Paenurk et al., Chem. Sci., 2017, 8, 6964-6973.]",C-H acid,acetonitrile
1056,CCC[C@@H]1CCC[N@H+]1C,O,0,0,9.78,[9.78],"[Hunt et al.. J. Chem. Inf. Model, 2020, 60 (6), 2989-2997.]",protonated amine,water
1057,[NH3+]c1cc2ccccc2cc1[N+](=O)[O-],O,0,0,1.48,[1.48],"[Hunt et al.. J. Chem. Inf. Model, 2020, 60 (6), 2989-2997.]",protonated amine,water
1058,C[C@@H]([NH2+]C(C)(C)C)C(=O)c1cccc(Cl)c1,O,0,0,8.4,[8.4],"[Hunt et al.. J. Chem. Inf. Model, 2020, 60 (6), 2989-2997.]",protonated amine,water
1059,NCC[NH3+],O,-,2-aminoethylazanium,9.98,[9.98],"[Tshepelvitsh et al., Eur. J. Org. Chem., 2019, 6735-6748.]",protonated amine,water
1060,COCC(=O)O,O,0,0,3.57,[3.57],"[Hunt et al.. J. Chem. Inf. Model, 2020, 60 (6), 2989-2997.]",carboxylic acid,water
1061,C1CC[NH2+]CC1,O,0,0,11.16,"[11.1, 11.22]","[Hunt et al.. J. Chem. Inf. Model, 2020, 60 (6), 2989-2997. ,   Tshepelvitsh et al., Eur. J. Org. Chem., 2019, 6735-6748.]",protonated amine,water
1062,CCCc1ccc(O)c2ncccc12,O,0,0,9.7,[9.7],"[Hunt et al.. J. Chem. Inf. Model, 2020, 60 (6), 2989-2997.]",phenol,water
1063,COC(=O)c1cccc([NH3+])c1,O,0,0,3.55,[3.55],"[Hunt et al.. J. Chem. Inf. Model, 2020, 60 (6), 2989-2997.]",protonated amine,water
1064,C[NH+](C)C(C)(C)C,O,0,0,10.29,[10.29],"[Hunt et al.. J. Chem. Inf. Model, 2020, 60 (6), 2989-2997.]",protonated amine,water
1065,CCOC(=O)c1ccccc1S(=O)(=O)NC(=O)Nc1nc(Cl)cc(OC)n1,O,0,0,4.2,[4.2],"[Hunt et al.. J. Chem. Inf. Model, 2020, 60 (6), 2989-2997.]",amine,water
1066,[NH3+]CCBr,O,0,0,8.49,[8.49],"[Hunt et al.. J. Chem. Inf. Model, 2020, 60 (6), 2989-2997.]",protonated amine,water
1067,C[NH2+]c1c(C)cc(C)cc1C,O,0,0,5.47,[5.47],"[Hunt et al.. J. Chem. Inf. Model, 2020, 60 (6), 2989-2997.]",protonated amine,water
1068,O=S(=O)(O)c1cccc2ccccc12,O,0,0,0.16,[0.16],"[Hunt et al.. J. Chem. Inf. Model, 2020, 60 (6), 2989-2997.]",sulfonic acid,water
1069,O=C(O)CCCCC(=O)O,CC#N,124-04-9,hexanedioic acid,20.3,[20.3],"[Eckert et al., J. Comput. Chem., 2009, 30, 799-810.]",carboxylic acid,acetonitrile
1070,Cc1ccc([NH+](C)C)c(C)c1,O,0,0,5.28,[5.28],"[Hunt et al.. J. Chem. Inf. Model, 2020, 60 (6), 2989-2997.]",protonated amine,water
1071,[NH3+]c1cc([N+](=O)[O-])ccc1Br,O,0,0,0.52,[0.52],"[Hunt et al.. J. Chem. Inf. Model, 2020, 60 (6), 2989-2997.]",protonated amine,water
1072,COc1cccc(C[NH3+])c1OC,O,0,0,9.41,[9.41],"[Hunt et al.. J. Chem. Inf. Model, 2020, 60 (6), 2989-2997.]",protonated amine,water
1073,O=[N+]([O-])C1=CN=C[NH2+]1,O,,5-nitro-1H-imidazol-3-ium,-0.16,[-0.16],"[Lokov et al., Eur. J. Org. Chem., 2017, 30, 4475-4489.]",protonated amine,water
1074,CC(C)Cc1ccc([C@H](C)C(=O)O)cc1,O,0,0,5.2,[5.2],"[Hunt et al.. J. Chem. Inf. Model, 2020, 60 (6), 2989-2997.]",carboxylic acid,water
1075,N#CC(c1c(F)c(F)c(C(F)(F)F)c(F)c1F)c1c(F)c(F)c(C(F)(F)F)c(F)c1F,CC#N,58432-55-6,"2,2-bis[2,3,5,6-tetrafluoro-4-(trifluoromethyl)phenyl]acetonitrile",16.125,"[16.12, 16.13, 16.13, 16.12]","[Kutt et al., Eur. J. Org. Chem., 2021, 2021 (9), 1407-1419., Paenurk et al., Chem. Sci., 2017, 8, 6964-6973., Eckert et al., J. Comput. Chem., 2009, 30, 799-810., Kutt et al., Eur. J. Org. Chem., 2021, 2021 (9), 1407-1419.]",C-H acid,acetonitrile
1076,O=C([O-])[C@H](c1ccccc1)N1CCC([NH+]2CCC(Oc3ccc(Cl)c(Cl)c3)CC2)CC1,O,0,0,9.1,[9.1],"[Hunt et al.. J. Chem. Inf. Model, 2020, 60 (6), 2989-2997.]",protonated amine,water
1077,C[C@H]([C@@H](O)c1ccccc1)[NH+](C)C,O,0,0,9.2,[9.2],"[Hunt et al.. J. Chem. Inf. Model, 2020, 60 (6), 2989-2997.]",protonated amine,water
1078,CC(C)[NH2+]C[C@H](O)c1ccccc1[N+](=O)[O-],O,0,0,9.35,[9.35],"[Hunt et al.. J. Chem. Inf. Model, 2020, 60 (6), 2989-2997.]",protonated amine,water
1079,O=C(O)c1cccc([N+](=O)[O-])c1[N+](=O)[O-],O,0,0,1.85,[1.85],"[Hunt et al.. J. Chem. Inf. Model, 2020, 60 (6), 2989-2997.]",carboxylic acid,water
1080,O=S(=O)(Nc1ccccc1)c1ccc(Cl)cc1,O,0,0,7.98,[7.98],"[Hunt et al.. J. Chem. Inf. Model, 2020, 60 (6), 2989-2997.]",amine,water
1081,CC(C)[NH+](C)C,O,0,0,10.47,[10.47],"[Hunt et al.. J. Chem. Inf. Model, 2020, 60 (6), 2989-2997.]",protonated amine,water
1082,CN(C)CCC[NH+](C)C,CS(=O)C,-,3-(dimethylamino)propyl-dimethylazanium,9.4,[9.4],"[Tshepelvitsh et al., Eur. J. Org. Chem., 2019, 6735-6748.]",protonated amine,DMSO
1083,N#Cc1cn(Cc2ccco2)c(=O)[nH]c1=O,O,0,0,6.1,[6.1],"[Hunt et al.. J. Chem. Inf. Model, 2020, 60 (6), 2989-2997.]",amine,water
1084,CCn1cc(C(=O)[O-])c(=O)c2cc(F)c(N3CC[NH+](C)CC3)cc21,O,0,0,7.55,[7.55],"[Hunt et al.. J. Chem. Inf. Model, 2020, 60 (6), 2989-2997.]",protonated amine,water
1085,C[NH+]=C1CCCCC1,O,0,0,9.43,[9.43],"[Hunt et al.. J. Chem. Inf. Model, 2020, 60 (6), 2989-2997.]",protonated amine,water
1086,NS(=O)(=O)c1ccc(Cl)cc1,CC#N,98-64-6,4-chlorobenzenesulfonamide,25.85,[25.85],"[Kutt et al., Eur. J. Org. Chem., 2021, 2021 (9), 1407-1419.]",amine,acetonitrile
1087,COC(=O)c1cccc([NH+](C)C)c1,O,0,0,3.86,[3.86],"[Hunt et al.. J. Chem. Inf. Model, 2020, 60 (6), 2989-2997.]",protonated amine,water
1088,CN1CC[NH+](C)CC1,O,-,"1,4-dimethylpiperazin-1-ium",8.54,[8.54],"[Tshepelvitsh et al., Eur. J. Org. Chem., 2019, 6735-6748.]",protonated amine,water
1089,Oc1c(F)c(F)c(F)c(F)c1F,O,771-61-9,"2,3,4,5,6-pentafluorophenol",5.575,"[5.55, 5.6]","[Kutt et al., Eur. J. Org. Chem., 2021, 2021 (9), 1407-1419. ,   Hunt et al.. J. Chem. Inf. Model, 2020, 60 (6), 2989-2997.]",phenol,water
1090,C[C@H]1CCC[C@@H](C)[NH+]1C,O,0,0,10.15,[10.15],"[Hunt et al.. J. Chem. Inf. Model, 2020, 60 (6), 2989-2997.]",protonated amine,water
1091,Fc1c(F)c(F)c2c(c1F)Cc1c(F)c(F)c(F)c(F)c1-2,CC#N,27053-34-5,"1,2,3,4,5,6,7,8-octafluoro-9H-fluorene",24.49,"[24.49, 24.49, 24.49, 24.49]","[Eckert et al., J. Comput. Chem., 2009, 30, 799-810., Kutt et al., Eur. J. Org. Chem., 2021, 2021 (9), 1407-1419., Kutt et al., Eur. J. Org. Chem., 2021, 2021 (9), 1407-1419., Paenurk et al., Chem. Sci., 2017, 8, 6964-6973.]",C-H acid,acetonitrile
1092,c1ccc(SCc2cccc[nH+]2)cc1,O,0,0,3.8,[3.8],"[Hunt et al.. J. Chem. Inf. Model, 2020, 60 (6), 2989-2997.]",protonated amine,water
1093,C[NH+](C)CC/C=C1\c2ccccc2COc2ccccc21,O,0,0,8,[8.0],"[Hunt et al.. J. Chem. Inf. Model, 2020, 60 (6), 2989-2997.]",protonated amine,water
1094,O=[N+]([O-])c1ccc(S(=O)(=O)O)c([N+](=O)[O-])c1,CC#N,89-02-1,"2,4-dinitrobenzenesulfonic acid",3.98,"[3.99, 3.96, 3.99]","[ Kutt et al., J. Org. Chem., 2011, 76, 391-395., Kutt et al., Eur. J. Org. Chem., 2021, 2021 (9), 1407-1419., Paenurk et al., Chem. Sci., 2017, 8, 6964-6973.]",sulfonic acid,acetonitrile
1095,CCC[NH2+]C[C@@H](O)COc1ccccc1C(=O)CCc1ccccc1,O,0,0,9.27,[9.27],"[Hunt et al.. J. Chem. Inf. Model, 2020, 60 (6), 2989-2997.]",protonated amine,water
1096,Oc1nccc2cccnc12,O,0,0,12.04,[12.04],"[Hunt et al.. J. Chem. Inf. Model, 2020, 60 (6), 2989-2997.]",phenol,water
1097,O=[N+]([O-])c1cc([N+](=O)[O-])c(O)c([N+](=O)[O-])c1,C1CCOC1,88-89-1,"2,4,6-trinitrophenol",11.84,[11.84],"[Kutt et al., Tetrahedron Lett., 2018.]",phenol,THF
1098,[O-][Cl+3]([O-])([O-])O,C(CCl)Cl,7601-90-3,perchloric acid,32.2,"[32.2, 32.2]","[Kutt et al., Tetrahedron Lett., 2018., Paenurk et al., Chem. Sci., 2017, 8, 6964-6973.]",inorganic,DCE
1099,[NH3+]c1ccc(Br)cc1[N+](=O)[O-],O,0,0,-1.05,[-1.05],"[Hunt et al.. J. Chem. Inf. Model, 2020, 60 (6), 2989-2997.]",protonated amine,water
1100,CC(C)S(=O)(=O)c1ccc([NH3+])cc1,O,0,0,1.4,[1.4],"[Hunt et al.. J. Chem. Inf. Model, 2020, 60 (6), 2989-2997.]",protonated amine,water
1101,CS,O,0,0,10.33,[10.33],"[Hunt et al.. J. Chem. Inf. Model, 2020, 60 (6), 2989-2997.]",thiol,water
1102,C[NH+](C)c1c(Cl)cc([N+](=O)[O-])cc1Cl,O,0,0,-0.23,[-0.23],"[Hunt et al.. J. Chem. Inf. Model, 2020, 60 (6), 2989-2997.]",protonated amine,water
1103,Cc1c(C(F)(F)F)c(C(F)(F)F)c(C(F)(F)F)c(C(F)(F)F)c1C(F)(F)F,CC#N,-,"1-methyl-2,3,4,5,6-pentakis(trifluoromethyl)benzene",28.735,"[28.7, 28.77, 28.77, 28.7]","[Eckert et al., J. Comput. Chem., 2009, 30, 799-810., Kutt et al., Eur. J. Org. Chem., 2021, 2021 (9), 1407-1419., Kutt et al., Eur. J. Org. Chem., 2021, 2021 (9), 1407-1419., Paenurk et al., Chem. Sci., 2017, 8, 6964-6973.]",C-H acid,acetonitrile
1104,C[C@@H](O)C[NH2+]CCO,O,0,0,9.4,[9.4],"[Hunt et al.. J. Chem. Inf. Model, 2020, 60 (6), 2989-2997.]",protonated amine,water
1105,[NH3+]c1ccc(F)cc1F,CC#N,,"(2,4-difluorophenyl)azanium",8.39,[8.39],"[Lokov et al., Eur. J. Org. Chem., 2017, 30, 4475-4489.]",protonated amine,acetonitrile
1106,CC(C)[NH2+]C[C@H](O)c1ccccc1Cl,O,0,0,9.43,[9.43],"[Hunt et al.. J. Chem. Inf. Model, 2020, 60 (6), 2989-2997.]",protonated amine,water
1107,COc1ccc(Cl)cc1C(=O)NCCc1ccc(S(=O)(=O)NC(=O)NC2CCCCC2)cc1,O,0,0,3.76,[3.76],"[Hunt et al.. J. Chem. Inf. Model, 2020, 60 (6), 2989-2997.]",amine,water
1108,Oc1c(Br)cc(Br)cc1Br,CS(=O)C,118-79-6,"2,4,6-tribromophenol",8.7,[8.7],"[Kutt et al., Eur. J. Org. Chem., 2021, 2021 (9), 1407-1419.]",phenol,DMSO
1109,CC[N@H+]1CCC[C@@H](C)C1,O,0,0,10.33,[10.33],"[Hunt et al.. J. Chem. Inf. Model, 2020, 60 (6), 2989-2997.]",protonated amine,water
1110,[NH3+]Cc1ccccc1Cl,O,0,0,8.8,[8.8],"[Hunt et al.. J. Chem. Inf. Model, 2020, 60 (6), 2989-2997.]",protonated amine,water
1111,COc1cc([NH3+])cc2ccccc12,O,0,0,4.05,[4.05],"[Hunt et al.. J. Chem. Inf. Model, 2020, 60 (6), 2989-2997.]",protonated amine,water
1112,O=C(CCl)NO,O,0,0,8.4,[8.4],"[Hunt et al.. J. Chem. Inf. Model, 2020, 60 (6), 2989-2997.]",amine,water
1113,CC(C)(C)N[P+](N1CCCC1)(N1CCCC1)N1CCCC1,CC#N,-,(tert-butylamino)-tripyrrolidin-1-ylphosphanium,28.42,"[28.42, 28.42]","[Kutt et al., Tetrahedron Lett., 2018., Tshepelvitsh et al., Eur. J. Org. Chem., 2019, 6735-6748.]",amine,acetonitrile
1114,CC[C@H](O)C[NH+](CC)C[C@@H](O)CC,O,0,0,9.2,[9.2],"[Hunt et al.. J. Chem. Inf. Model, 2020, 60 (6), 2989-2997.]",protonated amine,water
1115,CC[N@H+]1CCCC=C1C,O,0,0,11.53,[11.53],"[Hunt et al.. J. Chem. Inf. Model, 2020, 60 (6), 2989-2997.]",protonated amine,water
1116,O=C(O)c1cc([N+](=O)[O-])ccc1[N+](=O)[O-],O,0,0,1.62,[1.62],"[Hunt et al.. J. Chem. Inf. Model, 2020, 60 (6), 2989-2997.]",carboxylic acid,water
1117,Cc1cc(C)c(O)c(C(C)(C)C)c1,O,0,0,12.04,[12.04],"[Hunt et al.. J. Chem. Inf. Model, 2020, 60 (6), 2989-2997.]",phenol,water
1118,O=S(=O)(NS(=O)(=O)c1ccccc1)c1ccccc1,CN(C)C=O,2618-96-4,N-(benzenesulfonyl)benzenesulfonamide,3.66,[3.66],"[Kutt et al., Eur. J. Org. Chem., 2021, 2021 (9), 1407-1419.]",amine,DMF
1119,C[NH+](C)c1ccccc1,C1CCOC1,-,dimethyl(phenyl)azanium,4.9,[4.9],"[Tshepelvitsh et al., Eur. J. Org. Chem., 2019, 6735-6748.]",protonated amine,THF
1120,Oc1ccc(C(F)(F)F)cc1,CC#N,402-45-9,4-(trifluoromethyl)phenol,25.52,"[25.54, 25.5, 25.5, 25.54]","[Eckert et al., J. Comput. Chem., 2009, 30, 799-810., Kutt et al., Eur. J. Org. Chem., 2021, 2021 (9), 1407-1419., Kutt et al., Eur. J. Org. Chem., 2021, 2021 (9), 1407-1419., Paenurk et al., Chem. Sci., 2017, 8, 6964-6973.]",phenol,acetonitrile
1121,[NH3+]c1cc([N+](=O)[O-])c2ccccc2c1,O,0,0,2.43,[2.43],"[Hunt et al.. J. Chem. Inf. Model, 2020, 60 (6), 2989-2997.]",protonated amine,water
1122,N#CC(C#N)c1c(C(F)(F)F)cc(C(F)(F)F)c(C(F)(F)F)c1C(F)(F)F,CC#N,1018330-49-8,"2-(2,3,4,6-tetrakis(trifluoromethyl)phenyl)malononitrile",10.44,"[10.45, 10.45, 10.45, 10.42, 10.42, 10.45]","[Eckert et al., J. Comput. Chem., 2009, 30, 799-810.,  Kutt et al., J. Org. Chem., 2011, 76, 391-395., Paenurk et al., Chem. Sci., 2017, 8, 6964-6973., Kutt et al., Eur. J. Org. Chem., 2021, 2021 (9), 1407-1419., Kutt et al., Eur. J. Org. Chem., 2021, 2021 (9), 1407-1419., Paenurk et al., Chem. Sci., 2017, 8, 6964-6973.]",C-H acid,acetonitrile
1123,Oc1cccc2c1CCC2,O,0,0,10.32,[10.32],"[Hunt et al.. J. Chem. Inf. Model, 2020, 60 (6), 2989-2997.]",phenol,water
1124,CC(C)NC[C@H](O)c1cc(O)cc(O)c1,O,0,0,9.9,[9.9],"[Hunt et al.. J. Chem. Inf. Model, 2020, 60 (6), 2989-2997.]",phenol,water
1125,O=C(O)c1ccc([N+](=O)[O-])cc1,CC#N,62-23-7,4-nitrobenzoic acid,18.7,[18.7],"[Eckert et al., J. Comput. Chem., 2009, 30, 799-810.]",carboxylic acid,acetonitrile