,Solute SMILES,Solvent SMILES,Solute CAS,Solute IUPAC,pKa (avg),pKa (all),Source (all),Acid type,Solvent name
1982,CC(N)=[NH2+],O,0,0,12.4,[12.4],"[Hunt et al.. J. Chem. Inf. Model, 2020, 60 (6), 2989-2997.]",protonated amine,water
1983,COCCC[NH+](C)C,O,0,0,9.4,[9.4],"[Hunt et al.. J. Chem. Inf. Model, 2020, 60 (6), 2989-2997.]",protonated amine,water
1984,O=[N+]([O-])Cc1ccc([N+](=O)[O-])cc1,CC#N,1610-26-0,1-nitro-4-(nitromethyl)benzene,20.7,[20.7],"[Eckert et al., J. Comput. Chem., 2009, 30, 799-810.]",C-H acid,acetonitrile
1985,C[C@H](N)C(=O)O,O,0,0,2.35,[2.35],"[Hunt et al.. J. Chem. Inf. Model, 2020, 60 (6), 2989-2997.]",carboxylic acid,water
1986,Oc1c(Cl)cc(Cl)cc1Cl,CC#N,88-06-2,"2,4,6-trichlorophenol",22.5,[22.5],"[Eckert et al., J. Comput. Chem., 2009, 30, 799-810.]",phenol,acetonitrile
1987,N#CC(c1ccc(C(F)(F)F)cc1)c1c(F)c(F)c(F)c(F)c1F,C(CCl)Cl,42238-35-7,2-(perfluorophenyl)-2-(4-(trifluoromethyl)phenyl)acetonitrile,52.3,[52.3],"[Kutt et al., Eur. J. Org. Chem., 2021, 2021 (9), 1407-1419.]",C-H acid,DCE
1988,CCN(CC)C(=O)c1ccc[nH+]c1,O,0,0,3.5,[3.5],"[Hunt et al.. J. Chem. Inf. Model, 2020, 60 (6), 2989-2997.]",protonated amine,water
1989,O=C(c1ccccc1)N(O)c1ccccc1,O,0,0,8.38,[8.38],"[Hunt et al.. J. Chem. Inf. Model, 2020, 60 (6), 2989-2997.]",acidic hydroxyl,water
1990,O=CO,O,0,0,3.742,[3.742],"[Hunt et al.. J. Chem. Inf. Model, 2020, 60 (6), 2989-2997.]",carboxylic acid,water
1991,[NH3+]c1cccc2ccccc12,O,0,0,3.92,[3.92],"[Hunt et al.. J. Chem. Inf. Model, 2020, 60 (6), 2989-2997.]",protonated amine,water
1992,O=C(CNC(=O)c1ccccc1)NO,O,0,0,8.8,[8.8],"[Hunt et al.. J. Chem. Inf. Model, 2020, 60 (6), 2989-2997.]",amine,water
1993,CCN(CC)CCC[NH+](CC)CC,O,0,0,10.18,[10.18],"[Hunt et al.. J. Chem. Inf. Model, 2020, 60 (6), 2989-2997.]",protonated amine,water
1994,C[C@@H](C=C(c1cccs1)c1cccs1)[N@H+]1CCC[C@@H](C)C1,O,0,0,8.23,[8.23],"[Hunt et al.. J. Chem. Inf. Model, 2020, 60 (6), 2989-2997.]",protonated amine,water
1995,Nc1ccc(S(=O)(=O)Nc2ncccn2)cc1,O,0,0,6.29,[6.29],"[Hunt et al.. J. Chem. Inf. Model, 2020, 60 (6), 2989-2997.]",amine,water
1996,O=[N+]([O-])c1ccc(O)cc1[N+](=O)[O-],O,0,0,5.42,[5.42],"[Hunt et al.. J. Chem. Inf. Model, 2020, 60 (6), 2989-2997.]",phenol,water
1997,Cc1cc(Cl)ccc1OCCCC(=O)O,O,0,0,4.5,[4.5],"[Hunt et al.. J. Chem. Inf. Model, 2020, 60 (6), 2989-2997.]",carboxylic acid,water
1998,Cc1ccccc1CC(=O)O,O,0,0,4.35,[4.35],"[Hunt et al.. J. Chem. Inf. Model, 2020, 60 (6), 2989-2997.]",carboxylic acid,water
1999,c1ccc2c(c1)ccc1ccc[nH+]c12,O,,benzo[h]quinolin-1-ium,4.25,[4.25],"[Lokov et al., Eur. J. Org. Chem., 2017, 30, 4475-4489.]",protonated amine,water
2000,O=[N+]([O-])c1cc(S(=O)(=O)NS(=O)(=O)c2ccc(Cl)cc2)ccc1Cl,CC#N,1171188-83-2,-,8.775,"[8.75, 8.8]","[Kutt et al., Eur. J. Org. Chem., 2021, 2021 (9), 1407-1419., Paenurk et al., Chem. Sci., 2017, 8, 6964-6973.]",amine,acetonitrile
2001,CC(C)C(=O)O,O,0,0,4.84,[4.84],"[Hunt et al.. J. Chem. Inf. Model, 2020, 60 (6), 2989-2997.]",carboxylic acid,water
2002,COc1c(Cl)ccc(Cl)c1C(=O)O,O,0,0,1.97,[1.97],"[Hunt et al.. J. Chem. Inf. Model, 2020, 60 (6), 2989-2997.]",carboxylic acid,water
2003,CCC(C)(CC)[NH2+]c1ccccc1,O,0,0,6.34,[6.34],"[Hunt et al.. J. Chem. Inf. Model, 2020, 60 (6), 2989-2997.]",protonated amine,water
2004,Nc1ccc2[nH+]ccnc2n1,O,0,0,4.25,[4.25],"[Hunt et al.. J. Chem. Inf. Model, 2020, 60 (6), 2989-2997.]",protonated amine,water
2005,C1C[NH+]2CCN1CC2,C1CCOC1,49623-77-0,4-aza-1-azoniabicyclo[2.2.2]octane,11.7,[11.7],"[Tshepelvitsh et al., Eur. J. Org. Chem., 2019, 6735-6748.]",protonated amine,THF
2006,[NH3+]Cc1ccccc1,O,-,benzylazanium,9.48,"[9.34, 9.62]","[Tshepelvitsh et al., Eur. J. Org. Chem., 2019, 6735-6748. ,   Hunt et al.. J. Chem. Inf. Model, 2020, 60 (6), 2989-2997.]",protonated amine,water
2007,CCCC(=O)C(CC[NH+]1CCOCC1)(c1ccccc1)c1ccccc1,O,0,0,7.17,[7.17],"[Hunt et al.. J. Chem. Inf. Model, 2020, 60 (6), 2989-2997.]",protonated amine,water
2008,COc1cc([C@@H](O)C[NH+](C)C)ccc1O,O,0,0,9.52,[9.52],"[Hunt et al.. J. Chem. Inf. Model, 2020, 60 (6), 2989-2997.]",protonated amine,water
2009,CC(C)(C)S,O,0,0,11.22,[11.22],"[Hunt et al.. J. Chem. Inf. Model, 2020, 60 (6), 2989-2997.]",thiol,water
2010,Oc1ccc2nnccc2c1,O,0,0,7.55,[7.55],"[Hunt et al.. J. Chem. Inf. Model, 2020, 60 (6), 2989-2997.]",phenol,water
2011,Cc1ccccc1N(O)C(=O)Cc1ccccc1,O,0,0,8.46,[8.46],"[Hunt et al.. J. Chem. Inf. Model, 2020, 60 (6), 2989-2997.]",acidic hydroxyl,water
2012,CC[N@@H+]1CCCC[C@H]1C,O,0,0,10.66,[10.66],"[Hunt et al.. J. Chem. Inf. Model, 2020, 60 (6), 2989-2997.]",protonated amine,water
2013,C[P@@H](=O)O,O,0,0,3.08,[3.08],"[Hunt et al.. J. Chem. Inf. Model, 2020, 60 (6), 2989-2997.]",acidic hydroxyl,water
2014,Oc1ccccn1,O,0,0,11.62,[11.62],"[Hunt et al.. J. Chem. Inf. Model, 2020, 60 (6), 2989-2997.]",phenol,water
2015,CCCC[C@@H]1CCC[N@H+]1C,O,0,0,10.2,[10.2],"[Hunt et al.. J. Chem. Inf. Model, 2020, 60 (6), 2989-2997.]",protonated amine,water
2016,CC(C(O)=O)(C(O)=O)C,O,0,0,6.06,[6.06],"[Hunt et al.. J. Chem. Inf. Model, 2020, 60 (6), 2989-2997.]",carboxylic acid,water
2017,Cc1cc(Cl)ccc1[NH3+],O,0,0,3.848,[3.848],"[Hunt et al.. J. Chem. Inf. Model, 2020, 60 (6), 2989-2997.]",protonated amine,water
2018,[NH4+],O,14798-03-9,azanium,9.21,[9.21],"[Tshepelvitsh et al., Eur. J. Org. Chem., 2019, 6735-6748.]",inorganic,water
2019,c1c[nH+]ccn1,CS(=O)C,-,pyrazin-1-ium,-0.2,[-0.2],"[Tshepelvitsh et al., Eur. J. Org. Chem., 2019, 6735-6748.]",protonated amine,DMSO
2020,Cc1[nH]cc[nH+]1,O,0,0,7.8,[7.8],"[Hunt et al.. J. Chem. Inf. Model, 2020, 60 (6), 2989-2997.]",protonated amine,water
2021,C[C@H]1CCC[NH2+]C1,O,0,0,11.07,[11.07],"[Hunt et al.. J. Chem. Inf. Model, 2020, 60 (6), 2989-2997.]",protonated amine,water
2022,CCc1ccccc1[NH3+],O,0,0,4.37,[4.37],"[Hunt et al.. J. Chem. Inf. Model, 2020, 60 (6), 2989-2997.]",protonated amine,water
2023,[NH3+][C@@H]1C[C@H]1c1ccc(Br)cc1,O,0,0,8.13,[8.13],"[Hunt et al.. J. Chem. Inf. Model, 2020, 60 (6), 2989-2997.]",protonated amine,water
2024,CC[NH+](CC)c1ccc(Br)cc1,O,0,0,5.81,[5.81],"[Hunt et al.. J. Chem. Inf. Model, 2020, 60 (6), 2989-2997.]",protonated amine,water
2025,O=[N+]([O-])c1ccc(O)c([N+](=O)[O-])c1,O,51-28-5,"2,4-dinitrophenol",4.091,"[4.1, 4.1, 4.073]","[Kutt et al., Tetrahedron Lett., 2018., Kutt et al., Eur. J. Org. Chem., 2021, 2021 (9), 1407-1419. ,   Hunt et al.. J. Chem. Inf. Model, 2020, 60 (6), 2989-2997.]",phenol,water
2026,CO,O,0,0,15.5,[15.5],"[Hunt et al.. J. Chem. Inf. Model, 2020, 60 (6), 2989-2997.]",hydroxyl alcohol,water
2027,CCc1cc(C)cc(O)c1,O,0,0,10.1,[10.1],"[Hunt et al.. J. Chem. Inf. Model, 2020, 60 (6), 2989-2997.]",phenol,water
2028,c1ccc2[nH+][nH]nc2c1,CC#N,-,2H-benzotriazol-1-ium,6.885,"[6.88, 6.89]","[Lokov et al., Eur. J. Org. Chem., 2017, 30, 4475-4489., Tshepelvitsh et al., Eur. J. Org. Chem., 2019, 6735-6748.]",protonated amine,acetonitrile
2029,CCC(=O)SCC[NH+](C)C,O,0,0,8.28,[8.28],"[Hunt et al.. J. Chem. Inf. Model, 2020, 60 (6), 2989-2997.]",protonated amine,water
2030,N#CC(c1c(F)c(F)cc(F)c1F)c1c(F)c(F)c(F)c(F)c1F,CC#N,42254-09-1,"2-(2,3,4,5,6-pentafluorophenyl)-2-(2,3,5,6-tetrafluorophenyl)acetonitrile",21.106,"[21.11, 21.1, 21.11, 21.11, 21.1]","[Paenurk et al., Chem. Sci., 2017, 8, 6964-6973., Kutt et al., Eur. J. Org. Chem., 2021, 2021 (9), 1407-1419., Paenurk et al., Chem. Sci., 2017, 8, 6964-6973., Eckert et al., J. Comput. Chem., 2009, 30, 799-810., Kutt et al., Eur. J. Org. Chem., 2021, 2021 (9), 1407-1419.]",C-H acid,acetonitrile
2031,CC(C)CC[NH2+]CCC(C)C,O,0,0,10.94,[10.94],"[Hunt et al.. J. Chem. Inf. Model, 2020, 60 (6), 2989-2997.]",protonated amine,water
2032,Cc1cccc(C[NH2+]c2ccc([N+](=O)[O-])cc2[N+](=O)[O-])c1,O,0,0,-4.68,[-4.68],"[Hunt et al.. J. Chem. Inf. Model, 2020, 60 (6), 2989-2997.]",protonated amine,water
2033,Oc1ccc(Cl)cc1,CC#N,106-48-9,4-chlorophenol,25.44,[25.44],"[Eckert et al., J. Comput. Chem., 2009, 30, 799-810.]",phenol,acetonitrile
2034,Cc1cc[nH+]c(N)n1,O,0,0,4.11,[4.11],"[Hunt et al.. J. Chem. Inf. Model, 2020, 60 (6), 2989-2997.]",protonated amine,water
2035,O=C(Nc1ccc(N2CCOCC2)c(F)c1)c1nnc(Nc2ccccc2F)o1,O,0,0,8.61,[8.61],"[Hunt et al.. J. Chem. Inf. Model, 2020, 60 (6), 2989-2997.]",amine,water
2036,O=C(O)/C=C/c1cccc(Cl)c1,O,0,0,4.29,[4.29],"[Hunt et al.. J. Chem. Inf. Model, 2020, 60 (6), 2989-2997.]",carboxylic acid,water
2037,Oc1cc(Cl)c(Cl)c(Cl)c1,O,0,0,7.84,[7.84],"[Hunt et al.. J. Chem. Inf. Model, 2020, 60 (6), 2989-2997.]",phenol,water
2038,Oc1c(Br)c(Br)c(Br)c(Br)c1Br,O,608-71-9,"2,3,4,5,6-pentabromophenol",4.72,"[4.82, 4.62]","[Kutt et al., Eur. J. Org. Chem., 2021, 2021 (9), 1407-1419. ,   Hunt et al.. J. Chem. Inf. Model, 2020, 60 (6), 2989-2997.]",phenol,water
2039,NCCC[NH3+],CS(=O)C,-,3-aminopropylazanium,12.3,[12.3],"[Tshepelvitsh et al., Eur. J. Org. Chem., 2019, 6735-6748.]",protonated amine,DMSO
2040,C[N@H+](CC[N+]1(C)CCCCC1)c1ccccc1,O,0,0,2.61,[2.61],"[Hunt et al.. J. Chem. Inf. Model, 2020, 60 (6), 2989-2997.]",protonated amine,water
2041,O=P1(O)Oc2c(-c3ccc(F)cc3)cc3ccccc3c2-c2c(c(C3C=CC(F)=CC3)cc3ccccc23)O1,CC#N,915038-14-1,-,12.48,"[12.46, 12.5]","[Kutt et al., Eur. J. Org. Chem., 2021, 2021 (9), 1407-1419., Paenurk et al., Chem. Sci., 2017, 8, 6964-6973.]",phosphoric acid,acetonitrile
2042,Cc1ccccc1C[C@@H](C(=O)[O-])[NH+]1CCC(CN2CCC(Oc3ccc(Cl)c(Cl)c3)CC2)CC1,O,0,0,9.2,[9.2],"[Hunt et al.. J. Chem. Inf. Model, 2020, 60 (6), 2989-2997.]",protonated amine,water
2043,C[NH3+],CC#N,17000-00-9,methylazanium,18.37,[18.37],"[Tshepelvitsh et al., Eur. J. Org. Chem., 2019, 6735-6748.]",protonated amine,acetonitrile
2044,COc1cc(CC[NH3+])cc(OC)c1OC,O,0,0,9.56,[9.56],"[Hunt et al.. J. Chem. Inf. Model, 2020, 60 (6), 2989-2997.]",protonated amine,water
2045,CC[C@H](C)C[NH2+]C1CCCCC1,O,0,0,11.09,[11.09],"[Hunt et al.. J. Chem. Inf. Model, 2020, 60 (6), 2989-2997.]",protonated amine,water
2046,C[C@H]1CCC[C@@H](O)[C@@H]1[NH3+],O,0,0,9.39,[9.39],"[Hunt et al.. J. Chem. Inf. Model, 2020, 60 (6), 2989-2997.]",protonated amine,water
2047,Cc1ccccc1S(=O)(=O)NC(=O)N1CCC(N2CCC(Oc3ccc(Cl)c(Cl)c3)CC2)CC1,O,0,0,3.4,[3.4],"[Hunt et al.. J. Chem. Inf. Model, 2020, 60 (6), 2989-2997.]",amine,water
2048,C[NH2+]Cc1ccccc1,O,0,0,9.59,[9.59],"[Hunt et al.. J. Chem. Inf. Model, 2020, 60 (6), 2989-2997.]",protonated amine,water
2049,C[NH+](C)c1ccccc1Br,O,0,0,4.31,[4.31],"[Hunt et al.. J. Chem. Inf. Model, 2020, 60 (6), 2989-2997.]",protonated amine,water
2050,O=[N+]([O-])c1ccc(O)cc1Cl,CC#N,491-11-2,3-chloro-4-nitrophenol,19.9,[19.9],"[Eckert et al., J. Comput. Chem., 2009, 30, 799-810.]",phenol,acetonitrile
2051,C[NH2+]c1ccc(C(=O)OC)cc1,O,0,0,2.32,[2.32],"[Hunt et al.. J. Chem. Inf. Model, 2020, 60 (6), 2989-2997.]",protonated amine,water
2052,C[NH+](CCCl)CCCl,O,0,0,6.415,"[6.4, 6.43]","[Hunt et al.. J. Chem. Inf. Model, 2020, 60 (6), 2989-2997., Hunt et al.. J. Chem. Inf. Model, 2020, 60 (6), 2989-2997.]",protonated amine,water
2053,C[C@@H]1CCCC[N@@H+]1CCCOC(=O)c1ccc(Cl)c(Cl)c1,O,0,0,8.9,[8.9],"[Hunt et al.. J. Chem. Inf. Model, 2020, 60 (6), 2989-2997.]",protonated amine,water
2054,CC(C)(C)c1ccc([C@@H](O)CCC[NH+]2CCC(C(O)(c3ccccc3)c3ccccc3)CC2)cc1,O,0,0,8.8,[8.8],"[Hunt et al.. J. Chem. Inf. Model, 2020, 60 (6), 2989-2997.]",protonated amine,water
2055,Cc1cc([N+](=O)[O-])cc(C)c1O,O,0,0,7.19,[7.19],"[Hunt et al.. J. Chem. Inf. Model, 2020, 60 (6), 2989-2997.]",phenol,water
2056,C1C[NH2+]CCN1,C1CCOC1,8057-14-5,piperazin-1-ium,14.2,[14.2],"[Tshepelvitsh et al., Eur. J. Org. Chem., 2019, 6735-6748.]",protonated amine,THF
2057,NC(N)=NCC[NH+]1CCCCCCC1,O,0,0,11.4,[11.4],"[Hunt et al.. J. Chem. Inf. Model, 2020, 60 (6), 2989-2997.]",protonated amine,water
2058,c1cnc[nH+]c1,O,-,pyrimidin-1-ium,1.3,"[1.3, 1.3]","[Lokov et al., Eur. J. Org. Chem., 2017, 30, 4475-4489., Tshepelvitsh et al., Eur. J. Org. Chem., 2019, 6735-6748.]",protonated amine,water
2059,CC(C)(C)C[NH3+],O,0,0,10.15,[10.15],"[Hunt et al.. J. Chem. Inf. Model, 2020, 60 (6), 2989-2997.]",protonated amine,water
2060,NS(=O)(=O)c1cccc([N+](=O)[O-])c1,O,121-52-8,3-nitrobenzenesulfonamide,9.34,[9.34],"[Kutt et al., Eur. J. Org. Chem., 2021, 2021 (9), 1407-1419.]",amine,water
2061,CC[NH2+]c1cccc2ccccc12,O,0,0,4.19,[4.19],"[Hunt et al.. J. Chem. Inf. Model, 2020, 60 (6), 2989-2997.]",protonated amine,water
2062,[NH3+]c1cccc(S(=O)(=O)C(F)(F)F)c1,O,0,0,1.79,[1.79],"[Hunt et al.. J. Chem. Inf. Model, 2020, 60 (6), 2989-2997.]",protonated amine,water
2063,N#Cc1ccc(C(=O)O)cc1,O,0,0,3.55,[3.55],"[Hunt et al.. J. Chem. Inf. Model, 2020, 60 (6), 2989-2997.]",carboxylic acid,water
2064,COc1ccc2c3c1O[C@H]1C[C@@H](O)C=C[C@@]31CC[N@@H+](C)C2,O,0,0,8.21,[8.21],"[Hunt et al.. J. Chem. Inf. Model, 2020, 60 (6), 2989-2997.]",protonated amine,water
2065,O=C(O)[C@H]1CCC[NH2+]1,O,0,0,6.475,"[1.99, 10.96]","[Hunt et al.. J. Chem. Inf. Model, 2020, 60 (6), 2989-2997. ,   Hunt et al.. J. Chem. Inf. Model, 2020, 60 (6), 2989-2997.]",protonated amine,water
2066,Cc1cc([N+](=O)[O-])ccc1[NH3+],O,0,0,1.04,[1.04],"[Hunt et al.. J. Chem. Inf. Model, 2020, 60 (6), 2989-2997.]",protonated amine,water
2067,Oc1ccncn1,O,0,0,8.63,[8.63],"[Hunt et al.. J. Chem. Inf. Model, 2020, 60 (6), 2989-2997.]",phenol,water
2068,O=C(O)Cc1ccccc1CO,O,0,0,4.12,[4.12],"[Hunt et al.. J. Chem. Inf. Model, 2020, 60 (6), 2989-2997.]",carboxylic acid,water
2069,O=C(O)CCCCl,O,0,0,4.5,[4.5],"[Hunt et al.. J. Chem. Inf. Model, 2020, 60 (6), 2989-2997.]",carboxylic acid,water
2070,O=C1NC(=O)C([N+](=O)[O-])C(=O)N1,CC#N,480-68-2,"5-nitro-1,3-diazinane-2,4,6-trione",10.72,"[10.72, 10.72]","[Kutt et al., Eur. J. Org. Chem., 2021, 2021 (9), 1407-1419., Kutt et al., Eur. J. Org. Chem., 2021, 2021 (9), 1407-1419.]",amine,acetonitrile
2071,CC(C)(C)c1cc([N+](=O)[O-])cc(C(C)(C)C)c1O,O,0,0,6.65,[6.65],"[Hunt et al.. J. Chem. Inf. Model, 2020, 60 (6), 2989-2997.]",phenol,water
2072,N#CC(C#N)c1c(F)c(F)c2c(F)c(F)c(F)c(F)c2c1F,C(CCl)Cl,62325-35-3,"2-(1,3,4,5,6,7,8-heptafluoronaphthalen-2-yl)propanedinitrile",46.3,"[46.3, 46.3]","[Kutt et al., Eur. J. Org. Chem., 2021, 2021 (9), 1407-1419., Paenurk et al., Chem. Sci., 2017, 8, 6964-6973.]",C-H acid,DCE
2073,Oc1ccc(/N=N/c2ccccc2)cc1,O,0,0,8.2,[8.2],"[Hunt et al.. J. Chem. Inf. Model, 2020, 60 (6), 2989-2997.]",phenol,water
2074,CCCOC(C(=O)OC1CC[NH+](C)CC1)(c1ccccc1)c1ccccc1,O,0,0,6.65,[6.65],"[Hunt et al.. J. Chem. Inf. Model, 2020, 60 (6), 2989-2997.]",protonated amine,water
2075,CN(C)c1ccccc1S(=O)(=O)NC(=O)N1CCC([NH+]2CCC(Oc3ccc(Cl)c(Cl)c3)CC2)CC1,O,0,0,7.6,"[6.6, 8.6]","[Hunt et al.. J. Chem. Inf. Model, 2020, 60 (6), 2989-2997. ,   Hunt et al.. J. Chem. Inf. Model, 2020, 60 (6), 2989-2997.]",protonated amine,water
2076,Cc1cnnc2c(O)cccc12,O,0,0,8.36,[8.36],"[Hunt et al.. J. Chem. Inf. Model, 2020, 60 (6), 2989-2997.]",phenol,water
2077,COC(=O)c1cc(O)cc2ccccc12,O,0,0,8.88,[8.88],"[Hunt et al.. J. Chem. Inf. Model, 2020, 60 (6), 2989-2997.]",phenol,water
2078,C[NH+](C)CCO[C@@H](c1ccccc1)c1ccc(Br)cc1,O,0,0,8.64,[8.64],"[Hunt et al.. J. Chem. Inf. Model, 2020, 60 (6), 2989-2997.]",protonated amine,water
2079,CC(C)C[NH+]1CCCCC1,O,0,0,10.44,[10.44],"[Hunt et al.. J. Chem. Inf. Model, 2020, 60 (6), 2989-2997.]",protonated amine,water
2080,CCC[NH+](CC)CC,CC#N,-,diethyl(propyl)azanium,18.2,[18.2],"[Tshepelvitsh et al., Eur. J. Org. Chem., 2019, 6735-6748.]",protonated amine,acetonitrile
2081,COc1ccc(C[NH2+]C(CC2CCCCC2)CC2CCCCC2)cc1,O,0,0,7.8,[7.8],"[Hunt et al.. J. Chem. Inf. Model, 2020, 60 (6), 2989-2997.]",protonated amine,water
2082,CCC(CC)NC(=O)c1cn(-c2ccccc2)nc1NS(=O)(=O)c1ccc(C)cc1,O,0,0,5.3,[5.3],"[Hunt et al.. J. Chem. Inf. Model, 2020, 60 (6), 2989-2997.]",amine,water
2083,O=C(O)Cc1ccc(O)c(O)c1,O,0,0,4.25,[4.25],"[Hunt et al.. J. Chem. Inf. Model, 2020, 60 (6), 2989-2997.]",carboxylic acid,water
2084,CC(C)([NH3+])CO,O,0,0,9.71,[9.71],"[Hunt et al.. J. Chem. Inf. Model, 2020, 60 (6), 2989-2997.]",protonated amine,water
2085,CN(C)c1c(F)c(F)c(Nc2c(F)c(F)c(F)c(F)c2F)c(F)c1F,CC#N,80588-34-7,"2,3,5,6-tetrafluoro-N1,N1-dimethyl-N4-(perfluorophenyl)benzene-1,4-diamine",25.125,"[25.12, 25.13, 25.13, 25.12]","[Eckert et al., J. Comput. Chem., 2009, 30, 799-810., Kutt et al., Eur. J. Org. Chem., 2021, 2021 (9), 1407-1419., Kutt et al., Eur. J. Org. Chem., 2021, 2021 (9), 1407-1419., Paenurk et al., Chem. Sci., 2017, 8, 6964-6973.]",amine,acetonitrile
2086,Oc1cnnc2ccccc12,O,0,0,9.3,[9.3],"[Hunt et al.. J. Chem. Inf. Model, 2020, 60 (6), 2989-2997.]",phenol,water
2087,O=S(=O)(NS(=O)(=O)c1ccccc1)c1ccccc1,CC#N,2618-96-4,N-(benzenesulfonyl)benzenesulfonamide,11.34333333,"[11.34, 11.35, 11.34]","[Eckert et al., J. Comput. Chem., 2009, 30, 799-810., Kutt et al., Eur. J. Org. Chem., 2021, 2021 (9), 1407-1419., Paenurk et al., Chem. Sci., 2017, 8, 6964-6973.]",amine,acetonitrile
2088,CCOC(=O)C(C#N)c1c(F)c(F)nc(F)c1F,C(CCl)Cl,55810-61-2,"ethyl 2-cyano-2-(2,3,5,6-tetrafluoropyridin-4-yl)acetate",49.4,"[49.4, 49.4]","[Paenurk et al., Chem. Sci., 2017, 8, 6964-6973., Kutt et al., Eur. J. Org. Chem., 2021, 2021 (9), 1407-1419.]",C-H acid,DCE
2089,O=C(O)CCl,CC#N,79-11-8,2-chloroacetic acid,18.8,[18.8],"[Eckert et al., J. Comput. Chem., 2009, 30, 799-810.]",carboxylic acid,acetonitrile
2090,COc1cccc(/C=C/C(=O)O)c1,O,0,0,4.38,[4.38],"[Hunt et al.. J. Chem. Inf. Model, 2020, 60 (6), 2989-2997.]",carboxylic acid,water
2091,CC(Cl)(Cl)C(=O)O,O,0,0,1.74,[1.74],"[Hunt et al.. J. Chem. Inf. Model, 2020, 60 (6), 2989-2997.]",carboxylic acid,water
2092,CC(=O)N1CC[NH2+]CC1,O,0,0,7.9,[7.9],"[Hunt et al.. J. Chem. Inf. Model, 2020, 60 (6), 2989-2997.]",protonated amine,water
2093,Cc1cccc(O)c1C(=O)O,O,0,0,3.32,[3.32],"[Hunt et al.. J. Chem. Inf. Model, 2020, 60 (6), 2989-2997.]",carboxylic acid,water
2094,CC(C)(C)c1cccc(C(C)(C)C)c1O,O,0,0,11.7,[11.7],"[Hunt et al.. J. Chem. Inf. Model, 2020, 60 (6), 2989-2997.]",phenol,water
2095,CCCC[N@H+]1CCCC[C@@H]1C(=O)Nc1c(C)cccc1C,O,0,0,8.16,[8.16],"[Hunt et al.. J. Chem. Inf. Model, 2020, 60 (6), 2989-2997.]",protonated amine,water
2096,OC[C@@H](O)[C@@H](O)[C@H](O)[C@@H](O)CS,O,0,0,9.35,[9.35],"[Hunt et al.. J. Chem. Inf. Model, 2020, 60 (6), 2989-2997.]",thiol,water
2097,CCCN(CCC)CCc1ccc(O)c(NC(C)=O)c1,O,0,0,8.75,[8.75],"[Hunt et al.. J. Chem. Inf. Model, 2020, 60 (6), 2989-2997.]",phenol,water
2098,Cc1ccc(C(=O)O)cc1C,CC#N,619-04-5,"3,4-dimethylbenzoic acid",19,[19.0],"[Eckert et al., J. Comput. Chem., 2009, 30, 799-810.]",carboxylic acid,acetonitrile
2099,C[C@@H](O)C[N@H+](C)CCO,O,0,0,8.7,[8.7],"[Hunt et al.. J. Chem. Inf. Model, 2020, 60 (6), 2989-2997.]",protonated amine,water
2100,Cc1cc([N+](=O)[O-])c(O)c([N+](=O)[O-])c1,O,0,0,4.23,[4.23],"[Hunt et al.. J. Chem. Inf. Model, 2020, 60 (6), 2989-2997.]",phenol,water
2101,CCCc1ccc([C@H](C)[NH3+])cc1,O,0,0,9.45,[9.45],"[Hunt et al.. J. Chem. Inf. Model, 2020, 60 (6), 2989-2997.]",protonated amine,water
2102,OCCCS,O,0,0,10.19,[10.19],"[Hunt et al.. J. Chem. Inf. Model, 2020, 60 (6), 2989-2997.]",thiol,water
2103,COC(=O)CCc1ccc(OC[C@H](O)C[NH2+]C(C)C)cc1,O,0,0,9.5,[9.5],"[Hunt et al.. J. Chem. Inf. Model, 2020, 60 (6), 2989-2997.]",protonated amine,water
2104,c1ccc2c[nH+]ncc2c1,O,,phthalazin-3-ium,3.47,[3.47],"[Lokov et al., Eur. J. Org. Chem., 2017, 30, 4475-4489.]",protonated amine,water
2105,C[N+](C)(C)c1ccc(CC(=O)O)cc1,O,0,0,3.75,[3.75],"[Hunt et al.. J. Chem. Inf. Model, 2020, 60 (6), 2989-2997.]",carboxylic acid,water
2106,C[n+]1cc(O)cc2ccccc21,O,0,0,5.39,[5.39],"[Hunt et al.. J. Chem. Inf. Model, 2020, 60 (6), 2989-2997.]",phenol,water
2107,CC(C)C[C@H]([NH3+])c1ccccc1,O,0,0,9.47,[9.47],"[Hunt et al.. J. Chem. Inf. Model, 2020, 60 (6), 2989-2997.]",protonated amine,water
2108,Nc1ncc(-c2ccc(F)cc2)c[nH+]1,O,0,0,3.25,[3.25],"[Hunt et al.. J. Chem. Inf. Model, 2020, 60 (6), 2989-2997.]",protonated amine,water
2109,O=C(O)COCCN1CCN([C@H](c2ccccc2)c2ccc(Cl)cc2)CC1,O,0,0,3,[3.0],"[Hunt et al.. J. Chem. Inf. Model, 2020, 60 (6), 2989-2997.]",carboxylic acid,water
2110,O=C(O)C(Cl)Cl,O,0,0,1.26,[1.26],"[Hunt et al.. J. Chem. Inf. Model, 2020, 60 (6), 2989-2997.]",carboxylic acid,water
2111,c1c[nH][nH+]c1,C1CCOC1,,1H-pyrazol-2-ium,3.6,[3.6],"[Tshepelvitsh et al., Eur. J. Org. Chem., 2019, 6735-6748.]",protonated amine,THF