,Solute SMILES,Solvent SMILES,Solute CAS,Solute IUPAC,pKa (avg),pKa (all),Source (all),Acid type,Solvent name
2482,O=C(NC[C@@H](O)C[NH+]1CCC(Oc2ccc(Cl)c(Cl)c2)CC1)c1c[nH]c(=O)cc1C(F)(F)F,O,0,0,8,"[7.7, 8.3]","[Hunt et al.. J. Chem. Inf. Model, 2020, 60 (6), 2989-2997. ,   Hunt et al.. J. Chem. Inf. Model, 2020, 60 (6), 2989-2997.]",protonated amine,water
2483,O=[N+]([O-])c1cc(S(=O)(=O)NS(=O)(=O)c2ccc(Cl)c([N+](=O)[O-])c2)ccc1Cl,CC#N,64646-01-1,4-chloro-N-((4-chloro-3-nitrophenyl)sulfonyl)-3-nitrobenzenesulfonamide,7.47,[7.47],"[Kutt et al., Eur. J. Org. Chem., 2021, 2021 (9), 1407-1419.]",amine,acetonitrile
2484,C[NH+]1CC2CCC(CC2)C1,O,0,0,10.24,[10.24],"[Hunt et al.. J. Chem. Inf. Model, 2020, 60 (6), 2989-2997.]",protonated amine,water
2485,O=C(CS)O,O,0,0,10.4,[10.4],"[Hunt et al.. J. Chem. Inf. Model, 2020, 60 (6), 2989-2997.]",carboxylic acid,water
2486,Cc1ccc(S(N)(=O)=O)cc1,CS(=O)C,70-55-3,4-methylbenzenesulfonamide,16.3,[16.3],"[Kutt et al., Eur. J. Org. Chem., 2021, 2021 (9), 1407-1419.]",amine,DMSO
2487,CC[NH+](CC)CCC[NH+](CC)CC,O,0,0,8.2,[8.2],"[Hunt et al.. J. Chem. Inf. Model, 2020, 60 (6), 2989-2997.]",protonated amine,water
2488,[NH3+][C@@H]1C[C@H]1c1ccccc1,O,0,0,8.27,[8.27],"[Hunt et al.. J. Chem. Inf. Model, 2020, 60 (6), 2989-2997.]",protonated amine,water
2489,O=[N+]([O-])c1ccc2c(c1)Oc1ccccc1N2,CC#N,-,3-nitro-10H-phenoxazine,25.7,[25.7],"[Eckert et al., J. Comput. Chem., 2009, 30, 799-810.]",amine,acetonitrile
2490,CCCCCCCC[NH+](C[C@@H](C)O)C[C@@H](C)O,O,0,0,8.3,[8.3],"[Hunt et al.. J. Chem. Inf. Model, 2020, 60 (6), 2989-2997.]",protonated amine,water
2491,COc1c(N2CC[NH2+][C@H](C)C2)c(F)cc2c(=O)c(C(=O)[O-])cn(C3CC3)c12,O,0,0,9.18,[9.18],"[Hunt et al.. J. Chem. Inf. Model, 2020, 60 (6), 2989-2997.]",protonated amine,water
2492,CO/N=C1\CN(c2nc3c(cc2F)c(=O)c(C(=O)O)cn3C2CC2)C[C@@H]1CN,O,0,0,6.36,[6.36],"[Hunt et al.. J. Chem. Inf. Model, 2020, 60 (6), 2989-2997.]",carboxylic acid,water
2493,c1ccc2nc[nH+]cc2c1,CC#N,,quinazolin-3-ium,9.19,[9.19],"[Lokov et al., Eur. J. Org. Chem., 2017, 30, 4475-4489.]",protonated amine,acetonitrile
2494,CC[NH+](CCCl)CCCl,O,0,0,6.55,[6.55],"[Hunt et al.. J. Chem. Inf. Model, 2020, 60 (6), 2989-2997.]",protonated amine,water
2495,CCCCCC(=O)NO,O,0,0,9.75,[9.75],"[Hunt et al.. J. Chem. Inf. Model, 2020, 60 (6), 2989-2997.]",amine,water
2496,Cn1c(=O)c2c(ncn2CC[NH+](C)C)n(C)c1=O,O,0,0,7.5,[7.5],"[Hunt et al.. J. Chem. Inf. Model, 2020, 60 (6), 2989-2997.]",protonated amine,water
2497,COc1ccc(C(=O)NO)cc1,O,0,0,9,[9.0],"[Hunt et al.. J. Chem. Inf. Model, 2020, 60 (6), 2989-2997.]",amine,water
2498,NS(=O)(=O)c1ccc(C(F)(F)F)cc1,O,830-43-3,4-(trifluoromethyl)benzenesulfonamide,9.64,[9.64],"[Kutt et al., Eur. J. Org. Chem., 2021, 2021 (9), 1407-1419.]",amine,water
2499,[NH3+]c1ccc(C2CCC2)cc1,O,0,0,4.8,[4.8],"[Hunt et al.. J. Chem. Inf. Model, 2020, 60 (6), 2989-2997.]",protonated amine,water
2500,O=[N+]([O-])C1=NC=C[NH2+]1,CC#N,,2-nitro-1H-imidazol-1-ium,5.54,[5.54],"[Lokov et al., Eur. J. Org. Chem., 2017, 30, 4475-4489.]",protonated amine,acetonitrile
2501,C#CC(C)(C)[NH2+]C(C)(C)C=C,O,0,0,8.2,[8.2],"[Hunt et al.. J. Chem. Inf. Model, 2020, 60 (6), 2989-2997.]",protonated amine,water
2502,O=S(O)(CCS)=O,O,0,0,9.2,[9.2],"[Hunt et al.. J. Chem. Inf. Model, 2020, 60 (6), 2989-2997.]",sulfonic acid,water
2503,COc1cc(O)ncn1,O,0,0,8.47,[8.47],"[Hunt et al.. J. Chem. Inf. Model, 2020, 60 (6), 2989-2997.]",phenol,water
2504,[NH3+]c1cccc2c1Cc1ccccc1-2,O,0,0,3.87,[3.87],"[Hunt et al.. J. Chem. Inf. Model, 2020, 60 (6), 2989-2997.]",protonated amine,water
2505,CC(=O)C(=O)O,O,0,0,2.49,[2.49],"[Hunt et al.. J. Chem. Inf. Model, 2020, 60 (6), 2989-2997.]",carboxylic acid,water
2506,[NH3+]c1ccc2ccc([N+](=O)[O-])cc2c1,O,0,0,3.1,[3.1],"[Hunt et al.. J. Chem. Inf. Model, 2020, 60 (6), 2989-2997.]",protonated amine,water
2507,CC1=C(C(=O)[O-])N2C(=O)[C@@H](NC(=O)[C@H]([NH3+])c3ccc(O)cc3)[C@H]2SC1,O,0,0,7,[7.0],"[Hunt et al.. J. Chem. Inf. Model, 2020, 60 (6), 2989-2997.]",protonated amine,water
2508,C[n+]1ccc2ccc(O)cc2c1,O,0,0,7.06,[7.06],"[Hunt et al.. J. Chem. Inf. Model, 2020, 60 (6), 2989-2997.]",phenol,water
2509,NCCS,O,0,0,8.3,[8.3],"[Hunt et al.. J. Chem. Inf. Model, 2020, 60 (6), 2989-2997.]",thiol,water
2510,COC(=O)C1c2ccccc2-c2ccccc21,CS(=O)C,3002-30-0,methyl 9H-fluorene-9-carboxylate,10.35,"[10.35, 10.35]","[Paenurk et al., Chem. Sci., 2017, 8, 6964-6973., Kutt et al., Eur. J. Org. Chem., 2021, 2021 (9), 1407-1419.]",C-H acid,DMSO
2511,C[C@H](CC(C#N)(c1ccccc1)c1ccccc1)[NH+]1CCOCC1,O,0,0,6.05,[6.05],"[Hunt et al.. J. Chem. Inf. Model, 2020, 60 (6), 2989-2997.]",protonated amine,water
2512,Cc1ccccc1[NH2+][C@H]1CCc2ccccc21,O,0,0,0.83,[0.83],"[Hunt et al.. J. Chem. Inf. Model, 2020, 60 (6), 2989-2997.]",protonated amine,water
2513,CC(Br)(Br)C(=O)O,O,0,0,1.48,[1.48],"[Hunt et al.. J. Chem. Inf. Model, 2020, 60 (6), 2989-2997.]",carboxylic acid,water
2514,O=C(O)CCS,O,0,0,10.27,[10.27],"[Hunt et al.. J. Chem. Inf. Model, 2020, 60 (6), 2989-2997.]",carboxylic acid,water
2515,O=C(O)CCCc1ccccc1,O,0,0,4.76,[4.76],"[Hunt et al.. J. Chem. Inf. Model, 2020, 60 (6), 2989-2997.]",carboxylic acid,water
2516,CCCC[P@@H](=O)O,O,0,0,3.41,[3.41],"[Hunt et al.. J. Chem. Inf. Model, 2020, 60 (6), 2989-2997.]",acidic hydroxyl,water
2517,CCCc1cc(CCC)c(O)c(CCC)c1,O,0,0,11.59,[11.59],"[Hunt et al.. J. Chem. Inf. Model, 2020, 60 (6), 2989-2997.]",phenol,water
2518,[NH3+]c1ccccc1[N+](=O)[O-],O,0,0,-0.26,[-0.26],"[Hunt et al.. J. Chem. Inf. Model, 2020, 60 (6), 2989-2997.]",protonated amine,water
2519,c1cc(CC[NH+]2CCCC2)ccn1,O,0,0,9.27,[9.27],"[Hunt et al.. J. Chem. Inf. Model, 2020, 60 (6), 2989-2997.]",protonated amine,water
2520,c1ccc(CC[NH+]2CCCCC2)nc1,O,0,0,9.29,[9.29],"[Hunt et al.. J. Chem. Inf. Model, 2020, 60 (6), 2989-2997.]",protonated amine,water
2521,c1c[nH+]ccn1,O,-,pyrazin-1-ium,0.6,"[0.6, 0.6]","[Lokov et al., Eur. J. Org. Chem., 2017, 30, 4475-4489., Tshepelvitsh et al., Eur. J. Org. Chem., 2019, 6735-6748.]",protonated amine,water
2522,CC(C)[NH+](CCO)C(C)C,O,0,0,10.08,[10.08],"[Hunt et al.. J. Chem. Inf. Model, 2020, 60 (6), 2989-2997.]",protonated amine,water
2523,CC([NH3+])(CO)CO,O,0,0,8.801,[8.801],"[Hunt et al.. J. Chem. Inf. Model, 2020, 60 (6), 2989-2997.]",protonated amine,water
2524,O=C(O)C(O)(c1ccccc1)c1ccccc1,O,0,0,3.05,[3.05],"[Hunt et al.. J. Chem. Inf. Model, 2020, 60 (6), 2989-2997.]",carboxylic acid,water
2525,O=P1(NS(=O)(=O)C(F)(F)F)Oc2c(-c3ccccc3)cc3ccccc3c2-c2c(c(C3C=CC=CC3)cc3ccccc23)O1,CC#N,1010799-98-0,,6.4,[6.4],"[Paenurk et al., Chem. Sci., 2017, 8, 6964-6973.]",amine,acetonitrile
2526,[NH3+]c1cc(Br)cc(Br)c1,O,0,0,2.34,[2.34],"[Hunt et al.. J. Chem. Inf. Model, 2020, 60 (6), 2989-2997.]",protonated amine,water
2527,CC1CC[NH2+]CC1,O,0,0,11.23,[11.23],"[Hunt et al.. J. Chem. Inf. Model, 2020, 60 (6), 2989-2997.]",protonated amine,water
2528,CSc1cccc([C@@H](O)C[NH2+]C(C)C)c1,O,0,0,9.42,[9.42],"[Hunt et al.. J. Chem. Inf. Model, 2020, 60 (6), 2989-2997.]",protonated amine,water
2529,O=c1n(CCC[NH+]2CCN(c3cccc(Cl)c3)CC2)nc2ccccn12,O,0,0,6.8,[6.8],"[Hunt et al.. J. Chem. Inf. Model, 2020, 60 (6), 2989-2997.]",protonated amine,water
2530,CSc1ccc([NH3+])c([N+](=O)[O-])c1,O,0,0,-0.28,[-0.28],"[Hunt et al.. J. Chem. Inf. Model, 2020, 60 (6), 2989-2997.]",protonated amine,water
2531,Fc1c(F)c(F)c(C2c3c(F)c(F)c(F)c(F)c3-c3c(F)c(F)c(F)c(F)c32)c(F)c1F,CC#N,63264-80-2,"1,2,3,4,5,6,7,8-octafluoro-9-(2,3,4,5,6-pentafluorophenyl)-9H-fluorene",18.87666667,"[18.88, 18.88, 18.87, 18.87, 18.88, 18.88]","[Eckert et al., J. Comput. Chem., 2009, 30, 799-810., Paenurk et al., Chem. Sci., 2017, 8, 6964-6973., Kutt et al., Eur. J. Org. Chem., 2021, 2021 (9), 1407-1419., Kutt et al., Eur. J. Org. Chem., 2021, 2021 (9), 1407-1419., Paenurk et al., Chem. Sci., 2017, 8, 6964-6973., Kutt et al., Tetrahedron Lett., 2018.]",C-H acid,acetonitrile
2532,Oc1ccccc1,CC#N,108-95-2,phenol,29.17,"[29.14, 29.2, 29.2, 29.14]","[Eckert et al., J. Comput. Chem., 2009, 30, 799-810., Kutt et al., Eur. J. Org. Chem., 2021, 2021 (9), 1407-1419., Kutt et al., Eur. J. Org. Chem., 2021, 2021 (9), 1407-1419., Paenurk et al., Chem. Sci., 2017, 8, 6964-6973.]",phenol,acetonitrile
2533,COC(=O)c1cc(O)c2ccccc2c1,O,0,0,8.75,[8.75],"[Hunt et al.. J. Chem. Inf. Model, 2020, 60 (6), 2989-2997.]",phenol,water
2534,CC[NH2+]c1ccc(C)cc1,O,0,0,5.72,[5.72],"[Hunt et al.. J. Chem. Inf. Model, 2020, 60 (6), 2989-2997.]",protonated amine,water
2535,O=C(O)[C@H](O)c1cccc(Cl)c1,O,0,0,3.24,[3.24],"[Hunt et al.. J. Chem. Inf. Model, 2020, 60 (6), 2989-2997.]",carboxylic acid,water
2536,C[N+](C)(C)CCCc1ccccc1O,O,0,0,9.78,[9.78],"[Hunt et al.. J. Chem. Inf. Model, 2020, 60 (6), 2989-2997.]",phenol,water
2537,C[C@@H]([NH3+])Cc1ccc2c(c1)OCO2,O,0,0,9.67,[9.67],"[Hunt et al.. J. Chem. Inf. Model, 2020, 60 (6), 2989-2997.]",protonated amine,water
2538,[NH3+]c1ccc(C(F)(F)F)cc1,O,0,0,2.45,[2.45],"[Hunt et al.. J. Chem. Inf. Model, 2020, 60 (6), 2989-2997.]",protonated amine,water
2539,C[NH+](C)CCc1ccccn1,O,0,0,8.75,[8.75],"[Hunt et al.. J. Chem. Inf. Model, 2020, 60 (6), 2989-2997.]",protonated amine,water
2540,C#CC[NH3+],O,0,0,8.15,[8.15],"[Hunt et al.. J. Chem. Inf. Model, 2020, 60 (6), 2989-2997.]",protonated amine,water
2541,[NH3+]c1cccc2c1CCCC2,O,0,0,4.47,[4.47],"[Hunt et al.. J. Chem. Inf. Model, 2020, 60 (6), 2989-2997.]",protonated amine,water
2542,NCCC[NH3+],O,-,3-aminopropylazanium,10.47,[10.47],"[Tshepelvitsh et al., Eur. J. Org. Chem., 2019, 6735-6748.]",protonated amine,water
2543,O=[N+]([O-])c1ccc(-c2ccccc2)cc1O,O,0,0,6.74,[6.74],"[Hunt et al.. J. Chem. Inf. Model, 2020, 60 (6), 2989-2997.]",phenol,water
2544,O=C(O)c1cccc(S)c1,O,0,0,6.2,[6.2],"[Hunt et al.. J. Chem. Inf. Model, 2020, 60 (6), 2989-2997.]",carboxylic acid,water
2545,O=C(O)Cc1cccc(Cl)c1,O,0,0,4.14,[4.14],"[Hunt et al.. J. Chem. Inf. Model, 2020, 60 (6), 2989-2997.]",carboxylic acid,water
2546,O=Cc1ccccc1O,O,0,0,8.34,[8.34],"[Hunt et al.. J. Chem. Inf. Model, 2020, 60 (6), 2989-2997.]",phenol,water
2547,O=C(O)CCCCc1ccccc1,O,0,0,4.56,[4.56],"[Hunt et al.. J. Chem. Inf. Model, 2020, 60 (6), 2989-2997.]",carboxylic acid,water
2548,CC(C)[NH3+],CC#N,,propan-2-ylazanium,18.3,[18.3],"[Tshepelvitsh et al., Eur. J. Org. Chem., 2019, 6735-6748.]",protonated amine,acetonitrile
2549,c1ccc([NH2+]c2ccccc2)cc1,C1CCOC1,61236-17-7,diphenylazanium,0.6,[0.6],"[Tshepelvitsh et al., Eur. J. Org. Chem., 2019, 6735-6748.]",protonated amine,THF
2550,N#Cc1cc(Br)c(O)c(Br)c1,O,0,0,3.95,[3.95],"[Hunt et al.. J. Chem. Inf. Model, 2020, 60 (6), 2989-2997.]",phenol,water
2551,CCC[N@H+](C)[C@@H]1CCc2ccccc2C1,O,0,0,9.83,[9.83],"[Hunt et al.. J. Chem. Inf. Model, 2020, 60 (6), 2989-2997.]",protonated amine,water
2552,c1ccc(CSc2nc3ccccc3o2)[nH+]c1,O,0,0,4.3,[4.3],"[Hunt et al.. J. Chem. Inf. Model, 2020, 60 (6), 2989-2997.]",protonated amine,water
2553,[NH3+]C1CCC(C(=O)O)CC1,O,0,0,4.3,[4.3],"[Hunt et al.. J. Chem. Inf. Model, 2020, 60 (6), 2989-2997.]",protonated amine,water
2554,[NH3+]c1cccc(-c2cc(=O)c3c(ccc4ccccc43)o2)c1,O,0,0,3.23,[3.23],"[Hunt et al.. J. Chem. Inf. Model, 2020, 60 (6), 2989-2997.]",protonated amine,water
2555,COc1ccc(C[NH2+]c2ccc([N+](=O)[O-])cc2[N+](=O)[O-])cc1,O,0,0,-4.51,[-4.51],"[Hunt et al.. J. Chem. Inf. Model, 2020, 60 (6), 2989-2997.]",protonated amine,water
2556,Cc1c(C2(c3cc(C(C)C)c(O)c(Br)c3C)OS(=O)(=O)c3ccccc32)cc(C(C)C)c(O)c1Br,C(CCl)Cl,76-59-5,"2-bromo-4-[3-(3-bromo-4-hydroxy-2-methyl-5-propan-2-ylphenyl)-1,1-dioxo-2,16-benzoxathiol-3-yl]-3-methyl-6-propan-2-ylphenol",46.1,[46.1],"[Paenurk et al., Chem. Sci., 2017, 8, 6964-6973.]",phenol,DCE
2557,CC[NH2+]c1cccc(C)c1,O,0,0,5.25,[5.25],"[Hunt et al.. J. Chem. Inf. Model, 2020, 60 (6), 2989-2997.]",protonated amine,water
2558,C[NH+](C)CCC(c1ccccc1)c1ccccc1,O,0,0,9.35,[9.35],"[Hunt et al.. J. Chem. Inf. Model, 2020, 60 (6), 2989-2997.]",protonated amine,water
2559,[NH3+][C@@H](CCS)C(=O)[O-],O,0,0,8.7,[8.7],"[Hunt et al.. J. Chem. Inf. Model, 2020, 60 (6), 2989-2997.]",protonated amine,water
2560,Oc1cccc(F)c1,O,0,0,9.28,[9.28],"[Hunt et al.. J. Chem. Inf. Model, 2020, 60 (6), 2989-2997.]",phenol,water
2561,O=C(O)c1ccc([N+](=O)[O-])cc1[N+](=O)[O-],CC#N,610-30-0,"2,4-dinitrobenzoic acid",16.1,[16.1],"[Eckert et al., J. Comput. Chem., 2009, 30, 799-810.]",carboxylic acid,acetonitrile
2562,Cc1ccnc2c(O)cccc12,O,0,0,10,[10.0],"[Hunt et al.. J. Chem. Inf. Model, 2020, 60 (6), 2989-2997.]",phenol,water
2563,Cc1ccc(O)cc1C,O,0,0,10.32,[10.32],"[Hunt et al.. J. Chem. Inf. Model, 2020, 60 (6), 2989-2997.]",phenol,water
2564,Cc1ccc([C@@H]2C[C@H]2[NH3+])cc1,O,0,0,8.33,[8.33],"[Hunt et al.. J. Chem. Inf. Model, 2020, 60 (6), 2989-2997.]",protonated amine,water
2565,COc1ccc([C@@H](O)C[NH2+]C(C)C)cc1OC,O,0,0,9.58,[9.58],"[Hunt et al.. J. Chem. Inf. Model, 2020, 60 (6), 2989-2997.]",protonated amine,water
2566,O=[N+]([O-])c1ccc(S(=O)(=O)NS(=O)(=O)c2ccc([N+](=O)[O-])cc2)cc1,CC#N,7/6/09,4-nitro-N-(4-nitrophenyl)sulfonylbenzenesulfonamide,8.176666667,"[8.19, 8.19, 8.19, 8.15, 8.15, 8.19]","[Eckert et al., J. Comput. Chem., 2009, 30, 799-810.,  Kutt et al., J. Org. Chem., 2011, 76, 391-395., Paenurk et al., Chem. Sci., 2017, 8, 6964-6973., Kutt et al., Eur. J. Org. Chem., 2021, 2021 (9), 1407-1419., Kutt et al., Eur. J. Org. Chem., 2021, 2021 (9), 1407-1419., Paenurk et al., Chem. Sci., 2017, 8, 6964-6973.]",amine,acetonitrile
2567,CN(C(=O)Cc1ccc(S(=O)(=O)N(C)C)cc1)C1CC[NH+](CCC(c2ccccc2)c2ccccc2)CC1,O,0,0,8.1,[8.1],"[Hunt et al.. J. Chem. Inf. Model, 2020, 60 (6), 2989-2997.]",protonated amine,water
2568,O=C(O)n1cccc1,O,0,0,4.45,[4.45],"[Hunt et al.. J. Chem. Inf. Model, 2020, 60 (6), 2989-2997.]",carboxylic acid,water
2569,COc1cccc(S)c1,O,0,0,6.39,[6.39],"[Hunt et al.. J. Chem. Inf. Model, 2020, 60 (6), 2989-2997.]",thiol,water
2570,O=[N+]([O-])c1cc([N+](=O)[O-])c(Nc2c([N+](=O)[O-])cc([N+](=O)[O-])cc2[N+](=O)[O-])c([N+](=O)[O-])c1,CC#N,131-73-7,"2,4,6-trinitro-N-(2,4,6-trinitrophenyl)aniline",10.54,[10.54],"[Kutt et al., Eur. J. Org. Chem., 2021, 2021 (9), 1407-1419.]",amine,acetonitrile
2571,C[NH2+]C1CCCCC1,O,0,0,11.04,[11.04],"[Hunt et al.. J. Chem. Inf. Model, 2020, 60 (6), 2989-2997.]",protonated amine,water
2572,[NH2+]=C(c1ccccc1)c1ccccc1O,O,0,0,5,[5.0],"[Hunt et al.. J. Chem. Inf. Model, 2020, 60 (6), 2989-2997.]",protonated amine,water
2573,O=C(O)CNC(=O)c1ccccc1,O,0,0,3.62,[3.62],"[Hunt et al.. J. Chem. Inf. Model, 2020, 60 (6), 2989-2997.]",carboxylic acid,water
2574,Cc1cccc([NH3+])c1,O,0,0,4.69,[4.69],"[Hunt et al.. J. Chem. Inf. Model, 2020, 60 (6), 2989-2997.]",protonated amine,water
2575,COC(=O)c1ccc(CNS(C)(=O)=O)cc1S(=O)(=O)NC(=O)Nc1nc(OC)cc(OC)n1,O,0,0,4.35,[4.35],"[Hunt et al.. J. Chem. Inf. Model, 2020, 60 (6), 2989-2997.]",amine,water
2576,[NH3+]c1cc(Cl)ccc1Cl,CC#N,,"(2,5-dichlorophenyl)azanium",5.635,"[6.21, 5.06]","[Lokov et al., Eur. J. Org. Chem., 2017, 30, 4475-4489., Lokov et al., Eur. J. Org. Chem., 2017, 30, 4475-4489.]",protonated amine,acetonitrile
2577,CC1([NH3+])CCCCC1,O,0,0,10.36,[10.36],"[Hunt et al.. J. Chem. Inf. Model, 2020, 60 (6), 2989-2997.]",protonated amine,water
2578,Cc1ccc(C(=NS(=O)(=O)C(F)(F)F)NS(=O)(=O)C(F)(F)F)cc1,CC#N,500721-89-1,"4-methyl-N,N'-bis(trifluoromethylsulfonyl)benzenecarboximidamide",5.91,"[6.19, 5.86, 5.82, 5.82, 5.86]","[Eckert et al., J. Comput. Chem., 2009, 30, 799-810.,  Kutt et al., J. Org. Chem., 2011, 76, 391-395., Kutt et al., Eur. J. Org. Chem., 2021, 2021 (9), 1407-1419., Kutt et al., Eur. J. Org. Chem., 2021, 2021 (9), 1407-1419., Paenurk et al., Chem. Sci., 2017, 8, 6964-6973.]",amine,acetonitrile
2579,O=C([O-])c1cn(C2CC2)c2cc(N3CC[NH2+]CC3)c(F)cc2c1=O,O,0,0,8.57,[8.57],"[Hunt et al.. J. Chem. Inf. Model, 2020, 60 (6), 2989-2997.]",protonated amine,water
2580,Cc1c(F)c(F)c(Nc2c(F)c(F)c(F)c(F)c2F)c(F)c1F,CC#N,80588-36-9,"2,3,5,6-tetrafluoro-4-methyl-N-(2,3,4,5,6-pentafluorophenyl)aniline",24.95,"[24.96, 24.94, 24.94, 24.96]","[Kutt et al., Eur. J. Org. Chem., 2021, 2021 (9), 1407-1419., Paenurk et al., Chem. Sci., 2017, 8, 6964-6973., Eckert et al., J. Comput. Chem., 2009, 30, 799-810., Kutt et al., Eur. J. Org. Chem., 2021, 2021 (9), 1407-1419.]",amine,acetonitrile
2581,CCOc1ccccc1[NH3+],O,0,0,4.43,[4.43],"[Hunt et al.. J. Chem. Inf. Model, 2020, 60 (6), 2989-2997.]",protonated amine,water
2582,O=C(c1ccccc1)c1ccc(O)cc1,O,0,0,7.95,[7.95],"[Hunt et al.. J. Chem. Inf. Model, 2020, 60 (6), 2989-2997.]",phenol,water
2583,Oc1ccccc1O,O,0,0,9.125,[9.125],"[Hunt et al.. J. Chem. Inf. Model, 2020, 60 (6), 2989-2997.]",phenol,water
2584,CC(C)CC[C@H]([NH3+])c1ccccc1,O,0,0,9.02,[9.02],"[Hunt et al.. J. Chem. Inf. Model, 2020, 60 (6), 2989-2997.]",protonated amine,water
2585,O=[N+]([O-])c1ccc(O)cc1C(F)(F)F,O,0,0,6.07,[6.07],"[Hunt et al.. J. Chem. Inf. Model, 2020, 60 (6), 2989-2997.]",phenol,water
2586,CCCCc1ccccc1[NH3+],O,0,0,4.26,[4.26],"[Hunt et al.. J. Chem. Inf. Model, 2020, 60 (6), 2989-2997.]",protonated amine,water
2587,NS(=O)(=O)c1ccc(Cl)cc1,CS(=O)C,98-64-6,4-chlorobenzenesulfonamide,15.6,[15.6],"[Kutt et al., Eur. J. Org. Chem., 2021, 2021 (9), 1407-1419.]",amine,DMSO
2588,CC1=[NH+]C(C)(C)CS1,O,0,0,5.39,[5.39],"[Hunt et al.. J. Chem. Inf. Model, 2020, 60 (6), 2989-2997.]",protonated amine,water
2589,CC(C)C[NH+](C)C,O,0,0,10.08,[10.08],"[Hunt et al.. J. Chem. Inf. Model, 2020, 60 (6), 2989-2997.]",protonated amine,water
2590,[NH3+]c1ccc(I)cc1,O,0,0,3.78,[3.78],"[Hunt et al.. J. Chem. Inf. Model, 2020, 60 (6), 2989-2997.]",protonated amine,water
2591,COC(=O)[C@H](CC(=O)O)c1ccc([N+](=O)[O-])cc1,O,0,0,4.07,[4.07],"[Hunt et al.. J. Chem. Inf. Model, 2020, 60 (6), 2989-2997.]",carboxylic acid,water
2592,CC#CC(=O)O,O,0,0,2.65,[2.65],"[Hunt et al.. J. Chem. Inf. Model, 2020, 60 (6), 2989-2997.]",carboxylic acid,water
2593,C/C=C\c1ccc(O)c(OC)c1,O,0,0,9.88,[9.88],"[Hunt et al.. J. Chem. Inf. Model, 2020, 60 (6), 2989-2997.]",phenol,water
2594,Oc1ccc(Cl)c(Cl)c1,O,0,0,8.63,[8.63],"[Hunt et al.. J. Chem. Inf. Model, 2020, 60 (6), 2989-2997.]",phenol,water
2595,C#CCC[NH3+],O,0,0,8.25,[8.25],"[Hunt et al.. J. Chem. Inf. Model, 2020, 60 (6), 2989-2997.]",protonated amine,water
2596,CC1=CCCC[NH2+]1,O,0,0,9.53,[9.53],"[Hunt et al.. J. Chem. Inf. Model, 2020, 60 (6), 2989-2997.]",protonated amine,water
2597,CC[NH+](CC)CCOC(=O)C1(c2ccccc2)CCCC1,O,0,0,8.4,[8.4],"[Hunt et al.. J. Chem. Inf. Model, 2020, 60 (6), 2989-2997.]",protonated amine,water
2598,Cc1cc(N)[nH+]c(CCNC(=O)c2ccc(C#N)cc2)c1,O,0,0,7.1,[7.1],"[Hunt et al.. J. Chem. Inf. Model, 2020, 60 (6), 2989-2997.]",protonated amine,water
2599,FC(F)(F)c1c(S)c(C(F)(F)F)c(C(F)(F)F)c(C(F)(F)F)c1C(F)(F)F,CC#N,723294-91-5,"2,3,4,5,6-pentakis(trifluoromethyl)phenol",10.11,"[10.1, 10.12, 10.12, 10.1]","[ Kutt et al., J. Org. Chem., 2011, 76, 391-395., Kutt et al., Eur. J. Org. Chem., 2021, 2021 (9), 1407-1419., Kutt et al., Eur. J. Org. Chem., 2021, 2021 (9), 1407-1419., Paenurk et al., Chem. Sci., 2017, 8, 6964-6973.]",thiol,acetonitrile
2600,Oc1cc(C(F)(F)F)cc(C(F)(F)F)c1,CC#N,349-58-6,"3,5-bis(trifluoromethyl)phenol",23.79,"[23.78, 23.8, 23.8, 23.78]","[Eckert et al., J. Comput. Chem., 2009, 30, 799-810., Kutt et al., Eur. J. Org. Chem., 2021, 2021 (9), 1407-1419., Kutt et al., Eur. J. Org. Chem., 2021, 2021 (9), 1407-1419., Paenurk et al., Chem. Sci., 2017, 8, 6964-6973.]",phenol,acetonitrile
2601,O=[N+]([O-])c1cccc(S(=O)(=O)Nc2ccccc2)c1,O,0,0,7.5,[7.5],"[Hunt et al.. J. Chem. Inf. Model, 2020, 60 (6), 2989-2997.]",amine,water
2602,Cc1cc(C#N)cc(C)c1O,O,0,0,8.27,[8.27],"[Hunt et al.. J. Chem. Inf. Model, 2020, 60 (6), 2989-2997.]",phenol,water
2603,CC(=O)O,O,0,0,4.686666667,"[4.55, 4.75, 4.76]","[Hunt et al.. J. Chem. Inf. Model, 2020, 60 (6), 2989-2997. ,   Kutt et al., Tetrahedron Lett., 2018., Kutt et al., Eur. J. Org. Chem., 2021, 2021 (9), 1407-1419.]",carboxylic acid,water
2604,CC[NH2+]CC,CS(=O)C,-,diethylazanium,10.5,[10.5],"[Tshepelvitsh et al., Eur. J. Org. Chem., 2019, 6735-6748.]",protonated amine,DMSO
2605,Cc1ccc(S(=O)(=O)Nc2c(C(=O)N[C@@H](C)C(C)(C)C)c(C)nn2C(C)C)cc1,O,0,0,4.5,[4.5],"[Hunt et al.. J. Chem. Inf. Model, 2020, 60 (6), 2989-2997.]",amine,water