,Solute SMILES,Solvent SMILES,Solute CAS,Solute IUPAC,pKa (avg),pKa (all),Source (all),Acid type,Solvent name
876,Cc1ccc(S(=O)(=O)NC(=O)NN2C[C@H]3CCC[C@H]3C2)cc1,O,0,0,5.98,[5.98],"[Hunt et al.. J. Chem. Inf. Model, 2020, 60 (6), 2989-2997.]",amine,water
877,NCCCCC[NH3+],CS(=O)C,-,5-aminopentylazanium,11.7,[11.7],"[Tshepelvitsh et al., Eur. J. Org. Chem., 2019, 6735-6748.]",protonated amine,DMSO
878,O=[S@](O)Cc1ccccc1,O,0,0,1.45,[1.45],"[Hunt et al.. J. Chem. Inf. Model, 2020, 60 (6), 2989-2997.]",acidic hydroxyl,water
879,CNc1ncc(C(N)=O)c[nH+]1,O,0,0,2.05,[2.05],"[Hunt et al.. J. Chem. Inf. Model, 2020, 60 (6), 2989-2997.]",protonated amine,water
880,C[NH+]1CCN(C(=O)c2ccccc2)CC1,O,0,0,6.78,[6.78],"[Hunt et al.. J. Chem. Inf. Model, 2020, 60 (6), 2989-2997.]",protonated amine,water
881,C=CCO,O,0,0,15.52,[15.52],"[Hunt et al.. J. Chem. Inf. Model, 2020, 60 (6), 2989-2997.]",hydroxyl alcohol,water
882,CCOCC[NH3+],O,0,0,8,[8.0],"[Hunt et al.. J. Chem. Inf. Model, 2020, 60 (6), 2989-2997.]",protonated amine,water
883,CCOP(=O)(CCC[NH+](CC)CC)OCC,O,0,0,9.35,[9.35],"[Hunt et al.. J. Chem. Inf. Model, 2020, 60 (6), 2989-2997.]",protonated amine,water
884,CCC1=[NH+]C[C@H](C)S1,O,0,0,5.231,[5.231],"[Hunt et al.. J. Chem. Inf. Model, 2020, 60 (6), 2989-2997.]",protonated amine,water
885,[NH3+]c1ccc2ccc(Cl)cc2c1,O,0,0,3.71,[3.71],"[Hunt et al.. J. Chem. Inf. Model, 2020, 60 (6), 2989-2997.]",protonated amine,water
886,C=C[C@H]1C[N@@H+]2CC[C@H]1C[C@H]2[C@H](O)c1ccnc2ccc(OC)cc12,O,0,0,8.8,[8.8],"[Hunt et al.. J. Chem. Inf. Model, 2020, 60 (6), 2989-2997.]",protonated amine,water
887,N#CC(c1c(F)c(F)c(F)c(F)c1F)c1c(F)c(F)c(F)c(F)c1F,CS(=O)C,42238-34-6,"2,2-bis(2,3,4,5,6-pentafluorophenyl)acetonitrile",7.975,"[8.0, 7.95]","[Kutt et al., Tetrahedron Lett., 2018., Kutt et al., Eur. J. Org. Chem., 2021, 2021 (9), 1407-1419.]",C-H acid,DMSO
888,CC[NH2+]Cc1ccccc1,O,0,0,9.64,[9.64],"[Hunt et al.. J. Chem. Inf. Model, 2020, 60 (6), 2989-2997.]",protonated amine,water
889,C[C@@H](CC(c1ccccc1)c1ccccc1)[NH+](C)C,O,0,0,9.43,[9.43],"[Hunt et al.. J. Chem. Inf. Model, 2020, 60 (6), 2989-2997.]",protonated amine,water
890,C[NH+](C)c1cccc(C#N)c1,O,0,0,2.969,[2.969],"[Hunt et al.. J. Chem. Inf. Model, 2020, 60 (6), 2989-2997.]",protonated amine,water
891,CCCc1c(C)nc(O)nc1C,O,0,0,10.89,[10.89],"[Hunt et al.. J. Chem. Inf. Model, 2020, 60 (6), 2989-2997.]",hydroxyl alcohol,water
892,CCOC(=O)c1cc[nH+]c(N)c1,O,0,0,5.25,[5.25],"[Hunt et al.. J. Chem. Inf. Model, 2020, 60 (6), 2989-2997.]",protonated amine,water
893,N#CCCS,O,0,0,8.6,[8.6],"[Hunt et al.. J. Chem. Inf. Model, 2020, 60 (6), 2989-2997.]",thiol,water
894,Cc1cccc(C)c1O,O,0,0,10.59,[10.59],"[Hunt et al.. J. Chem. Inf. Model, 2020, 60 (6), 2989-2997.]",phenol,water
895,C[C@@H]1C[C@H](Cl)[C@@H]2CCCC[C@@H]2[NH2+]1,O,0,0,9.67,[9.67],"[Hunt et al.. J. Chem. Inf. Model, 2020, 60 (6), 2989-2997.]",protonated amine,water
896,CCn1cc(C(=O)O)c(=O)c2cc(F)c(N3CC[NH+](C)CC3)cc21,O,0,0,6.915,"[7.55, 6.28]","[Hunt et al.. J. Chem. Inf. Model, 2020, 60 (6), 2989-2997. ,   Hunt et al.. J. Chem. Inf. Model, 2020, 60 (6), 2989-2997.]",protonated amine,water
897,NCCCC[NH3+],O,-,4-aminobutylazanium,10.65,[10.65],"[Tshepelvitsh et al., Eur. J. Org. Chem., 2019, 6735-6748.]",protonated amine,water
898,CCOP(=O)(OCC)SCC[NH+](C)C,O,0,0,7.73,[7.73],"[Hunt et al.. J. Chem. Inf. Model, 2020, 60 (6), 2989-2997.]",protonated amine,water
899,NS(=O)(=O)c1ccc([N+](=O)[O-])cc1,CC#N,6325-93-5,4-nitrobenzenesulfonamide,23.74,"[22.91, 24.57]","[Eckert et al., J. Comput. Chem., 2009, 30, 799-810., Kutt et al., Eur. J. Org. Chem., 2021, 2021 (9), 1407-1419.]",amine,acetonitrile
900,C/C=C(\C)[NH+]1CCCCC1,O,0,0,8.35,[8.35],"[Hunt et al.. J. Chem. Inf. Model, 2020, 60 (6), 2989-2997.]",protonated amine,water
901,CCCCP(=O)(CCCC)[C@@](C)(O)C(=O)O,O,0,0,2.94,[2.94],"[Hunt et al.. J. Chem. Inf. Model, 2020, 60 (6), 2989-2997.]",carboxylic acid,water
902,C[C@@H]1CCCC[N@H+]1C,O,0,0,10.22,[10.22],"[Hunt et al.. J. Chem. Inf. Model, 2020, 60 (6), 2989-2997.]",protonated amine,water
903,C[C@H]([NH3+])C(=O)O,O,0,0,6.175,"[2.35, 10.0]","[Hunt et al.. J. Chem. Inf. Model, 2020, 60 (6), 2989-2997. ,   Hunt et al.. J. Chem. Inf. Model, 2020, 60 (6), 2989-2997.]",protonated amine,water
904,c1ccc(-c2cccc[nH+]2)nc1,CC#N,,2-pyridin-1-ium-2-ylpyridine,12.265,"[12.26, 12.27]","[Lokov et al., Eur. J. Org. Chem., 2017, 30, 4475-4489., Tshepelvitsh et al., Eur. J. Org. Chem., 2019, 6735-6748.]",protonated amine,acetonitrile
905,CC(C)(C)[NH2+]C[C@H](O)c1ccc(F)c(F)c1,O,0,0,9.51,[9.51],"[Hunt et al.. J. Chem. Inf. Model, 2020, 60 (6), 2989-2997.]",protonated amine,water
906,CC[NH+]1[C@@H](C)[C@H]1C,O,0,0,8.56,[8.56],"[Hunt et al.. J. Chem. Inf. Model, 2020, 60 (6), 2989-2997.]",protonated amine,water
907,OCC(Cl)(Cl)Cl,O,0,0,12.24,[12.24],"[Hunt et al.. J. Chem. Inf. Model, 2020, 60 (6), 2989-2997.]",hydroxyl alcohol,water
908,C[n+]1ccc2c(O)cccc2c1,O,0,0,6.87,[6.87],"[Hunt et al.. J. Chem. Inf. Model, 2020, 60 (6), 2989-2997.]",phenol,water
909,Cc1ccccc1[NH3+],CC#N,,(2-methylphenyl)azanium,10.5,[10.5],"[Lokov et al., Eur. J. Org. Chem., 2017, 30, 4475-4489.]",protonated amine,acetonitrile
910,CCOC(=O)C(CC[NH+](C)C)(c1ccccc1)c1ccccc1,O,0,0,9.87,[9.87],"[Hunt et al.. J. Chem. Inf. Model, 2020, 60 (6), 2989-2997.]",protonated amine,water
911,C[NH+](C)CCC(=O)C(c1ccccc1)c1ccccc1,O,0,0,8.71,[8.71],"[Hunt et al.. J. Chem. Inf. Model, 2020, 60 (6), 2989-2997.]",protonated amine,water
912,Cc1ccc(C[NH3+])cn1,O,0,0,8.7,[8.7],"[Hunt et al.. J. Chem. Inf. Model, 2020, 60 (6), 2989-2997.]",protonated amine,water
913,Cn1cc(C(=O)NC[C@@H](O)C[NH+]2CCC(Oc3ccc(Cl)c(Cl)c3)CC2)c(C(F)(F)F)cc1=O,O,0,0,7.8,[7.8],"[Hunt et al.. J. Chem. Inf. Model, 2020, 60 (6), 2989-2997.]",protonated amine,water
914,CCC[C@@H](C)[NH+](C)C,O,0,0,10.57,[10.57],"[Hunt et al.. J. Chem. Inf. Model, 2020, 60 (6), 2989-2997.]",protonated amine,water
915,CC(=O)O[C@H](C)C[NH+](C)C,O,0,0,8.32,[8.32],"[Hunt et al.. J. Chem. Inf. Model, 2020, 60 (6), 2989-2997.]",protonated amine,water
916,CC[NH+](CC)c1cccc(C)c1,O,0,0,7.12,[7.12],"[Hunt et al.. J. Chem. Inf. Model, 2020, 60 (6), 2989-2997.]",protonated amine,water
917,C1CC[NH2+]C1,CC#N,84316-19-8,pyrrolidin-1-ium,19.62,[19.62],"[Tshepelvitsh et al., Eur. J. Org. Chem., 2019, 6735-6748.]",protonated amine,acetonitrile
918,O=C(O)/C=C/c1ccccc1O,O,0,0,4.61,[4.61],"[Hunt et al.. J. Chem. Inf. Model, 2020, 60 (6), 2989-2997.]",carboxylic acid,water
919,CCCCOc1ccc(OCCCC)c([NH3+])c1,O,0,0,3.96,[3.96],"[Hunt et al.. J. Chem. Inf. Model, 2020, 60 (6), 2989-2997.]",protonated amine,water
920,C[C@H]1CCC[C@@H](C)[NH+]1CC(C)(C)O,O,0,0,10.5,[10.5],"[Hunt et al.. J. Chem. Inf. Model, 2020, 60 (6), 2989-2997.]",protonated amine,water
921,O=C(O)CCCCC(=O)O,O,0,0,4.43,[4.43],"[Hunt et al.. J. Chem. Inf. Model, 2020, 60 (6), 2989-2997.]",carboxylic acid,water
922,O=C(O)c1cn(C2CC2)c2cc(N3CC[NH2+]CC3)c(F)cc2c1=O,O,0,0,7.35,"[6.13, 8.57]","[Hunt et al.. J. Chem. Inf. Model, 2020, 60 (6), 2989-2997. ,   Hunt et al.. J. Chem. Inf. Model, 2020, 60 (6), 2989-2997.]",protonated amine,water
923,Cc1cc(O)ccc1Cl,O,0,0,9.55,[9.55],"[Hunt et al.. J. Chem. Inf. Model, 2020, 60 (6), 2989-2997.]",phenol,water
924,[NH3+]c1ccc(Br)c2ccccc12,O,0,0,3.21,[3.21],"[Hunt et al.. J. Chem. Inf. Model, 2020, 60 (6), 2989-2997.]",protonated amine,water
925,O=S(=O)(N=C(NS(=O)(=O)C(F)(F)F)c1ccccc1)C(F)(F)F,C(CCl)Cl,500721-91-5,"N,N'-bis(trifluoromethylsulfonyl)benzenecarboximidamide",33.3,[33.3],"[Paenurk et al., Chem. Sci., 2017, 8, 6964-6973.]",amine,DCE
926,C[NH2+]C[C@H](O)c1ccc(O)cc1,O,0,0,9.6,[9.6],"[Hunt et al.. J. Chem. Inf. Model, 2020, 60 (6), 2989-2997.]",protonated amine,water
927,COC(=O)c1ccc(C(F)(F)F)nc1S(=O)(=O)NC(=O)Nc1nc(OC)cc(OC)n1,O,0,0,4.9,[4.9],"[Hunt et al.. J. Chem. Inf. Model, 2020, 60 (6), 2989-2997.]",amine,water
928,N#CC(c1ccc(C(F)(F)F)cc1)c1c(F)c(F)c(F)c(F)c1F,CS(=O)C,42238-35-7,2-(perfluorophenyl)-2-(4-(trifluoromethyl)phenyl)acetonitrile,4.9,[4.9],"[Kutt et al., Eur. J. Org. Chem., 2021, 2021 (9), 1407-1419.]",C-H acid,DMSO
929,O=C(O)CCCCCCCC(=O)O,O,0,0,3.49,[3.49],"[Hunt et al.. J. Chem. Inf. Model, 2020, 60 (6), 2989-2997.]",carboxylic acid,water
930,CC[NH+](CC)CCCCC(O)(c1ccccc1)c1ccccc1,O,0,0,10.08,[10.08],"[Hunt et al.. J. Chem. Inf. Model, 2020, 60 (6), 2989-2997.]",protonated amine,water
931,O=C(O)c1ccccc1,CC#N,65-85-0,benzoic acid,21.506,"[21.51, 21.51, 21.5, 21.5, 21.51]","[Eckert et al., J. Comput. Chem., 2009, 30, 799-810., Kutt et al., Tetrahedron Lett., 2018., Kutt et al., Eur. J. Org. Chem., 2021, 2021 (9), 1407-1419., Kutt et al., Eur. J. Org. Chem., 2021, 2021 (9), 1407-1419., Paenurk et al., Chem. Sci., 2017, 8, 6964-6973.]",carboxylic acid,acetonitrile
932,CCCSc1ccc2[nH+]c([N-]C(=O)OC)[nH]c2c1,O,0,0,10.5,[10.5],"[Hunt et al.. J. Chem. Inf. Model, 2020, 60 (6), 2989-2997.]",protonated amine,water
933,Cc1ccc(C(C#N)C#N)cc1,CC#N,33534-88-2,2-(4-methylphenyl)propanedinitrile,17.58333333,"[17.59, 17.57, 17.59]","[Eckert et al., J. Comput. Chem., 2009, 30, 799-810., Kutt et al., Eur. J. Org. Chem., 2021, 2021 (9), 1407-1419., Paenurk et al., Chem. Sci., 2017, 8, 6964-6973.]",C-H acid,acetonitrile
934,Clc1ccc[nH+]c1,CC#N,,3-chloropyridin-1-ium,9.55,[9.55],"[Lokov et al., Eur. J. Org. Chem., 2017, 30, 4475-4489.]",protonated amine,acetonitrile
935,c1cnc2c(c1)ccc1ccc3ccc[nH+]c3c12,O,,,12,[12.0],"[Lokov et al., Eur. J. Org. Chem., 2017, 30, 4475-4489.]",protonated amine,water
936,Cc1cc(C[N@@H+](CC(=O)Nc2ccc(Cl)cc2Cl)C2CCCCC2)ccc1OCC(=O)O,O,0,0,2.9,[2.9],"[Hunt et al.. J. Chem. Inf. Model, 2020, 60 (6), 2989-2997.]",protonated amine,water
937,c1c[nH+][nH]n1,O,-,2H-triazol-1-ium,1.17,"[1.17, 1.17]","[Lokov et al., Eur. J. Org. Chem., 2017, 30, 4475-4489., Tshepelvitsh et al., Eur. J. Org. Chem., 2019, 6735-6748.]",protonated amine,water
938,CCc1cc(C(N)=S)cc[nH+]1,O,0,0,4.4,[4.4],"[Hunt et al.. J. Chem. Inf. Model, 2020, 60 (6), 2989-2997.]",protonated amine,water
939,ClCC[NH+](CCCl)CCCl,O,0,0,4.37,[4.37],"[Hunt et al.. J. Chem. Inf. Model, 2020, 60 (6), 2989-2997.]",protonated amine,water
940,Cc1c(C(=O)O)cc([N+](=O)[O-])cc1[N+](=O)[O-],O,0,0,2.97,[2.97],"[Hunt et al.. J. Chem. Inf. Model, 2020, 60 (6), 2989-2997.]",carboxylic acid,water
941,CCS(=O)(=O)c1cccnc1S(=O)(=O)NC(=O)Nc1nc(OC)cc(OC)n1,O,0,0,4,[4.0],"[Hunt et al.. J. Chem. Inf. Model, 2020, 60 (6), 2989-2997.]",amine,water
942,[NH3+]c1ccc(CC(=O)O)cc1,O,0,0,4.43,"[5.26, 3.6]","[Hunt et al.. J. Chem. Inf. Model, 2020, 60 (6), 2989-2997. ,   Hunt et al.. J. Chem. Inf. Model, 2020, 60 (6), 2989-2997.]",protonated amine,water
943,CCC(C)([NH3+])CC,O,0,0,10.63,[10.63],"[Hunt et al.. J. Chem. Inf. Model, 2020, 60 (6), 2989-2997.]",protonated amine,water
944,O=[N+]([O-])c1cc([N+](=O)[O-])c(O)c([N+](=O)[O-])c1,CN(C)C=O,88-89-1,"2,4,6-trinitrophenol",1.1,[1.1],"[Kutt et al., Eur. J. Org. Chem., 2021, 2021 (9), 1407-1419.]",phenol,DMF
945,O=S(=O)(OCC(F)(F)CF)c1cc(S(=O)(=O)OCC(F)(F)CF)c(O)c(S(=O)(=O)OCC(F)(F)CF)c1,CC#N,1263293-54-4,,8.155,"[8.14, 8.17]","[Kutt et al., Eur. J. Org. Chem., 2021, 2021 (9), 1407-1419., Paenurk et al., Chem. Sci., 2017, 8, 6964-6973.]",phenol,acetonitrile
946,[NH3+]c1ccc2cccc([N+](=O)[O-])c2c1,O,0,0,2.73,[2.73],"[Hunt et al.. J. Chem. Inf. Model, 2020, 60 (6), 2989-2997.]",protonated amine,water
947,C[C@@H]([NH3+])Cc1ccccc1,O,0,0,9.94,[9.94],"[Hunt et al.. J. Chem. Inf. Model, 2020, 60 (6), 2989-2997.]",protonated amine,water
948,c1cncc(CC[NH+]2CCCC2)c1,O,0,0,9.28,[9.28],"[Hunt et al.. J. Chem. Inf. Model, 2020, 60 (6), 2989-2997.]",protonated amine,water
949,Oc1cncc2cccnc12,O,0,0,8.35,[8.35],"[Hunt et al.. J. Chem. Inf. Model, 2020, 60 (6), 2989-2997.]",phenol,water
950,C1C[NH+]2CCC1CC2,CS(=O)C,-,1-azoniabicyclo[2.2.2]octane,9.8,[9.8],"[Tshepelvitsh et al., Eur. J. Org. Chem., 2019, 6735-6748.]",protonated amine,DMSO
951,Fc1c(F)c(F)c(Nc2c(F)c(F)c(F)c(F)c2F)c(F)c1F,CS(=O)C,1535-92-8,"2,3,4,5,6-pentafluoro-N-(2,3,4,5,6-pentafluorophenyl)aniline",11.6,[11.6],"[Kutt et al., Eur. J. Org. Chem., 2021, 2021 (9), 1407-1419.]",amine,DMSO
952,O=C(O)c1cccc2cccc(C(=O)O)c12,CC#N,518-05-8,"naphthalene-1,8-dicarboxylic acid",21.8,[21.8],"[Eckert et al., J. Comput. Chem., 2009, 30, 799-810.]",carboxylic acid,acetonitrile
953,CN1CCN(C2=c3ccccc3=[NH+]c3ccc(Cl)cc3N2)CC1,O,0,0,7.5,[7.5],"[Hunt et al.. J. Chem. Inf. Model, 2020, 60 (6), 2989-2997.]",protonated amine,water
954,O=C1C(O)=C(Oc2ccccc2)C(=O)C(O)=C1Oc1ccccc1,O,0,0,2,[2.0],"[Hunt et al.. J. Chem. Inf. Model, 2020, 60 (6), 2989-2997.]",hydroxyl alcohol,water
955,Cc1cccc(O)c1,O,0,0,10.09,[10.09],"[Hunt et al.. J. Chem. Inf. Model, 2020, 60 (6), 2989-2997.]",phenol,water
956,C[C@@H]([NH3+])Cc1ccc(O)cc1,O,0,0,9.7,[9.7],"[Hunt et al.. J. Chem. Inf. Model, 2020, 60 (6), 2989-2997.]",protonated amine,water
957,C1C[NH2+]C1,O,0,0,11.3,[11.3],"[Hunt et al.. J. Chem. Inf. Model, 2020, 60 (6), 2989-2997.]",protonated amine,water
958,C=CC[NH3+],O,0,0,9.49,[9.49],"[Hunt et al.. J. Chem. Inf. Model, 2020, 60 (6), 2989-2997.]",protonated amine,water
959,Cc1cccc(S)c1,O,0,0,6.66,[6.66],"[Hunt et al.. J. Chem. Inf. Model, 2020, 60 (6), 2989-2997.]",thiol,water
960,CN(C)[P+](NC(C)(C)C)(N(C)C)N(C)C,O,-,(tert-butylamino)-tris(dimethylamino)phosphanium,17,[17.0],"[Tshepelvitsh et al., Eur. J. Org. Chem., 2019, 6735-6748.]",amine,water
961,C1C[NH2+]1,O,0,0,8,[8.0],"[Hunt et al.. J. Chem. Inf. Model, 2020, 60 (6), 2989-2997.]",protonated amine,water
962,N#CCc1ccc([N+](=O)[O-])cc1,CC#N,555-21-5,2-(4-nitrophenyl)acetonitrile,25.4,[25.4],"[Eckert et al., J. Comput. Chem., 2009, 30, 799-810.]",C-H acid,acetonitrile
963,C[n+]1cccc2cc(O)ccc21,O,0,0,7.12,[7.12],"[Hunt et al.. J. Chem. Inf. Model, 2020, 60 (6), 2989-2997.]",phenol,water
964,CC=CC=CC(=O)O,O,110-44-1,"hexa-2,4-dienoic acid",4.5,[4.5],"[Kutt et al., Eur. J. Org. Chem., 2021, 2021 (9), 1407-1419.]",carboxylic acid,water
965,[NH3+]CCCCCCBr,O,0,0,10.6,[10.6],"[Hunt et al.. J. Chem. Inf. Model, 2020, 60 (6), 2989-2997.]",protonated amine,water
966,O=S(=O)(c1cc(S(=O)(=O)C(F)(F)F)c(O)c(S(=O)(=O)C(F)(F)F)c1)C(F)(F)F,CC#N,71571-37-4,"2,4,6-tris(trifluoromethylsulfonyl)phenol",4.52,"[4.48, 4.48, 4.44, 4.48, 4.8, 4.44]","[ Kutt et al., J. Org. Chem., 2011, 76, 391-395., Paenurk et al., Chem. Sci., 2017, 8, 6964-6973., Kutt et al., Eur. J. Org. Chem., 2021, 2021 (9), 1407-1419., Paenurk et al., Chem. Sci., 2017, 8, 6964-6973., Eckert et al., J. Comput. Chem., 2009, 30, 799-810., Kutt et al., Eur. J. Org. Chem., 2021, 2021 (9), 1407-1419.]",phenol,acetonitrile
967,Oc1ccc(C(F)(F)F)cc1,O,402-45-9,4-(trifluoromethyl)phenol,8.6775,"[8.68, 8.675]","[Kutt et al., Eur. J. Org. Chem., 2021, 2021 (9), 1407-1419. ,   Hunt et al.. J. Chem. Inf. Model, 2020, 60 (6), 2989-2997.]",phenol,water
968,O=C(NCC12CC3CC(CC(C3)C1)C2)c1cc(OC2CC[NH2+]CC2)ccc1Cl,O,0,0,9,[9.0],"[Hunt et al.. J. Chem. Inf. Model, 2020, 60 (6), 2989-2997.]",protonated amine,water
969,Clc1ccc(/C=[NH+]/c2ccccc2)cc1,O,0,0,2.8,[2.8],"[Hunt et al.. J. Chem. Inf. Model, 2020, 60 (6), 2989-2997.]",protonated amine,water
970,[NH3+]CC1CCCCC1,O,0,0,10.49,[10.49],"[Hunt et al.. J. Chem. Inf. Model, 2020, 60 (6), 2989-2997.]",protonated amine,water
971,CC[NH+](CC)c1ccc([N+](=O)[O-])cc1,O,0,0,1.75,[1.75],"[Hunt et al.. J. Chem. Inf. Model, 2020, 60 (6), 2989-2997.]",protonated amine,water
972,[NH3+]c1ccccc1C=O,O,0,0,1.36,[1.36],"[Hunt et al.. J. Chem. Inf. Model, 2020, 60 (6), 2989-2997.]",protonated amine,water
973,CCOC(=O)N1CC[NH+](C)CC1,O,0,0,7.31,[7.31],"[Hunt et al.. J. Chem. Inf. Model, 2020, 60 (6), 2989-2997.]",protonated amine,water
974,CC[NH2+]CCC(=O)C(c1ccccc1)c1ccccc1,O,0,0,9.55,[9.55],"[Hunt et al.. J. Chem. Inf. Model, 2020, 60 (6), 2989-2997.]",protonated amine,water
975,O=[N+]([O-])c1ccccc1O,O,0,0,7.215,"[7.21, 7.22]","[Hunt et al.. J. Chem. Inf. Model, 2020, 60 (6), 2989-2997. ,   Kutt et al., Eur. J. Org. Chem., 2021, 2021 (9), 1407-1419.]",phenol,water
976,Cc1ccc([NH3+])cc1Cl,O,0,0,4.05,[4.05],"[Hunt et al.. J. Chem. Inf. Model, 2020, 60 (6), 2989-2997.]",protonated amine,water
977,c1ccc2[nH+]c3ccccc3cc2c1,O,-,acridin-10-ium,5.62,"[5.62, 5.62]","[Lokov et al., Eur. J. Org. Chem., 2017, 30, 4475-4489., Tshepelvitsh et al., Eur. J. Org. Chem., 2019, 6735-6748.]",protonated amine,water
978,CCC([NH3+])CC,O,0,0,10.42,[10.42],"[Hunt et al.. J. Chem. Inf. Model, 2020, 60 (6), 2989-2997.]",protonated amine,water
979,Nc1[nH]ncc1-c1cc(Cl)ccc1Oc1cc(F)c(S(=O)(=O)Nc2cscn2)cc1Cl,O,0,0,6.2,[6.2],"[Hunt et al.. J. Chem. Inf. Model, 2020, 60 (6), 2989-2997.]",amine,water
980,Cc1ccc(N)[nH+]c1,O,0,0,7.22,[7.22],"[Hunt et al.. J. Chem. Inf. Model, 2020, 60 (6), 2989-2997.]",protonated amine,water
981,CC[NH+](CC)CCOC(=O)c1ccc([NH3+])cc1,O,0,0,2,[2.0],"[Hunt et al.. J. Chem. Inf. Model, 2020, 60 (6), 2989-2997.]",protonated amine,water
982,C[NH+]1CCCCC1,C1CCOC1,-,1-methylpiperidin-1-ium,12.9,[12.9],"[Tshepelvitsh et al., Eur. J. Org. Chem., 2019, 6735-6748.]",protonated amine,THF
983,C[C@H](C(=O)O)c1ccc(-c2ccccc2)c(F)c1,O,0,0,4.2,[4.2],"[Hunt et al.. J. Chem. Inf. Model, 2020, 60 (6), 2989-2997.]",carboxylic acid,water
984,CS(=O)(=O)c1ccc(C(=O)O)cc1,O,0,0,3.64,[3.64],"[Hunt et al.. J. Chem. Inf. Model, 2020, 60 (6), 2989-2997.]",carboxylic acid,water
985,ClCC[NH+](CCCl)c1cc(Cl)cc2c1OCOC2,O,0,0,6.9,[6.9],"[Hunt et al.. J. Chem. Inf. Model, 2020, 60 (6), 2989-2997.]",protonated amine,water
986,N[NH3+],CS(=O)C,18500-32-8,aminoazanium,10.1,[10.1],"[Tshepelvitsh et al., Eur. J. Org. Chem., 2019, 6735-6748.]",inorganic,DMSO
987,CC[NH+](C)CC,CC#N,-,diethyl(methyl)azanium,18.2,[18.2],"[Tshepelvitsh et al., Eur. J. Org. Chem., 2019, 6735-6748.]",protonated amine,acetonitrile
988,CC(C)(C)[NH2+]c1ccc(Br)cc1,O,0,0,5.93,[5.93],"[Hunt et al.. J. Chem. Inf. Model, 2020, 60 (6), 2989-2997.]",protonated amine,water
989,Oc1ccccc1/N=N/c1ccccc1O,O,0,0,7.8,[7.8],"[Hunt et al.. J. Chem. Inf. Model, 2020, 60 (6), 2989-2997.]",phenol,water
990,c1ccc2[nH+]c[nH]c2c1,CC#N,-,1H-benzimidazol-3-ium,13.53,"[13.52, 13.54]","[Lokov et al., Eur. J. Org. Chem., 2017, 30, 4475-4489., Tshepelvitsh et al., Eur. J. Org. Chem., 2019, 6735-6748.]",protonated amine,acetonitrile
991,C1CCC([NH2+]C2CCCCC2)CC1,O,0,0,11.25,[11.25],"[Hunt et al.. J. Chem. Inf. Model, 2020, 60 (6), 2989-2997.]",protonated amine,water
992,Cc1cc(O)ncn1,O,0,0,9.1,[9.1],"[Hunt et al.. J. Chem. Inf. Model, 2020, 60 (6), 2989-2997.]",phenol,water
993,O=Cc1cccc(O)c1,O,0,0,9,[9.0],"[Hunt et al.. J. Chem. Inf. Model, 2020, 60 (6), 2989-2997.]",phenol,water
994,O=C1C=C[NH2+]C(=O)N1,O,,"1H-pyrimidin-1-ium-2,4-dione",0.5,[0.5],"[Lokov et al., Eur. J. Org. Chem., 2017, 30, 4475-4489.]",protonated amine,water
995,CCn1cc(C(=O)[O-])c(=O)c2cc(F)c(N3CC[NH2+][C@H](C)C3)c(F)c21,O,0,0,8.87,[8.87],"[Hunt et al.. J. Chem. Inf. Model, 2020, 60 (6), 2989-2997.]",protonated amine,water
996,Cc1csc(C(=O)O)n1,O,0,0,3.18,[3.18],"[Hunt et al.. J. Chem. Inf. Model, 2020, 60 (6), 2989-2997.]",carboxylic acid,water
997,NS(=O)(=O)c1ccc(C[NH3+])cc1,O,0,0,8.52,[8.52],"[Hunt et al.. J. Chem. Inf. Model, 2020, 60 (6), 2989-2997.]",protonated amine,water
998,NS(=O)(=O)c1cccc(Cl)c1,CC#N,17260-71-8,3-chlorobenzenesulfonamide,23.8,[23.8],"[Eckert et al., J. Comput. Chem., 2009, 30, 799-810.]",amine,acetonitrile
999,O=C(O)COc1ccc(F)cc1,O,0,0,3.56,[3.56],"[Hunt et al.. J. Chem. Inf. Model, 2020, 60 (6), 2989-2997.]",carboxylic acid,water
1000,Cc1ccccc1C(=[NH2+])c1ccccc1,O,0,0,6.79,[6.79],"[Hunt et al.. J. Chem. Inf. Model, 2020, 60 (6), 2989-2997.]",protonated amine,water
1001,O=[N+]([O-])c1ccc(O/N=C/c2cc(Br)c(O)c(Br)c2)c([N+](=O)[O-])c1,O,0,0,5.46,[5.46],"[Hunt et al.. J. Chem. Inf. Model, 2020, 60 (6), 2989-2997.]",phenol,water
1002,O=C(O)C=CC(=O)O,CC#N,26099-09-2,but-2-enedioic acid,19.2,[19.2],"[Eckert et al., J. Comput. Chem., 2009, 30, 799-810.]",carboxylic acid,acetonitrile
1003,[NH3+]c1cccc(Br)c1,O,0,0,3.58,[3.58],"[Hunt et al.. J. Chem. Inf. Model, 2020, 60 (6), 2989-2997.]",protonated amine,water
1004,COc1nc(C)cc(O)n1,O,0,0,8.5,[8.5],"[Hunt et al.. J. Chem. Inf. Model, 2020, 60 (6), 2989-2997.]",phenol,water