,Solute SMILES,Solvent SMILES,Solute CAS,Solute IUPAC,pKa (avg),pKa (all),Source (all),Acid type,Solvent name
254,C[NH+](C)CCCO,O,0,0,9.3,[9.3],"[Hunt et al.. J. Chem. Inf. Model, 2020, 60 (6), 2989-2997.]",protonated amine,water
255,O=C(O)CCCCCCc1ccccc1,O,0,0,5.07,[5.07],"[Hunt et al.. J. Chem. Inf. Model, 2020, 60 (6), 2989-2997.]",carboxylic acid,water
256,Cc1ccc([NH3+])c([N+](=O)[O-])c1,O,0,0,0.403,[0.403],"[Hunt et al.. J. Chem. Inf. Model, 2020, 60 (6), 2989-2997.]",protonated amine,water
257,O=[N+]([O-])c1cccc(S(=O)(=O)NS(=O)(=O)c2ccc(Cl)cc2)c1,C(CCl)Cl,95468-16-9,N-(4-chlorophenyl)sulfonyl-3-nitrobenzenesulfonamide,42.4,[42.4],"[Kutt et al., Eur. J. Org. Chem., 2021, 2021 (9), 1407-1419.]",amine,DCE
258,Cc1ccc(S(=O)(=O)NS(=O)(=O)c2ccc([N+](=O)[O-])cc2)cc1,CC#N,100724-78-5,4-methyl-N-(4-nitrophenyl)sulfonylbenzenesulfonamide,10.04,"[10.04, 10.04, 10.04, 10.04, 10.04, 10.04]","[Eckert et al., J. Comput. Chem., 2009, 30, 799-810., Kutt et al., Eur. J. Org. Chem., 2021, 2021 (9), 1407-1419.,  Kutt et al., J. Org. Chem., 2011, 76, 391-395., Paenurk et al., Chem. Sci., 2017, 8, 6964-6973., Kutt et al., Eur. J. Org. Chem., 2021, 2021 (9), 1407-1419., Paenurk et al., Chem. Sci., 2017, 8, 6964-6973.]",amine,acetonitrile
259,CC(C)Sc1ccc([NH3+])cc1,O,0,0,3.89,[3.89],"[Hunt et al.. J. Chem. Inf. Model, 2020, 60 (6), 2989-2997.]",protonated amine,water
260,O=C([O-])[C@H]1CCC[NH2+]1,O,0,0,10.96,[10.96],"[Hunt et al.. J. Chem. Inf. Model, 2020, 60 (6), 2989-2997.]",protonated amine,water
261,C1CC[NH2+]C1,CS(=O)C,84316-19-8,pyrrolidin-1-ium,11.06,[11.06],"[Tshepelvitsh et al., Eur. J. Org. Chem., 2019, 6735-6748.]",protonated amine,DMSO
262,CC[C@@H](C)C[C@@H](C)[NH3+],O,0,0,10.55,[10.55],"[Hunt et al.. J. Chem. Inf. Model, 2020, 60 (6), 2989-2997.]",protonated amine,water
263,CC[NH2+]C[C@H](O)c1ccc(OC)c(OC)c1,O,0,0,9.61,[9.61],"[Hunt et al.. J. Chem. Inf. Model, 2020, 60 (6), 2989-2997.]",protonated amine,water
264,Cc1ccccc1S(=O)(=O)NC(=O)N1CCC([NH+]2CCC(Oc3ccc(Cl)c(Cl)c3)CC2)CC1,O,0,0,3.4,[3.4],"[Hunt et al.. J. Chem. Inf. Model, 2020, 60 (6), 2989-2997.]",protonated amine,water
265,COC(=O)C[NH3+],O,0,0,7.66,[7.66],"[Hunt et al.. J. Chem. Inf. Model, 2020, 60 (6), 2989-2997.]",protonated amine,water
266,C[NH2+]C[C@H](O)c1ccc(F)c(F)c1,O,0,0,9.23,[9.23],"[Hunt et al.. J. Chem. Inf. Model, 2020, 60 (6), 2989-2997.]",protonated amine,water
267,O=[N+]([O-])c1cccc([N+](=O)[O-])c1O,O,573-56-8,"2,6-dinitrophenol",3.705,"[3.7, 3.71]","[Kutt et al., Eur. J. Org. Chem., 2021, 2021 (9), 1407-1419. ,   Hunt et al.. J. Chem. Inf. Model, 2020, 60 (6), 2989-2997.]",phenol,water
268,C[C@H]1COc2c(N3CC[NH+](C)CC3)c(F)cc3c(=O)c(C(=O)O)cn1c23,O,0,0,7.1,"[8.14, 6.06]","[Hunt et al.. J. Chem. Inf. Model, 2020, 60 (6), 2989-2997. ,   Hunt et al.. J. Chem. Inf. Model, 2020, 60 (6), 2989-2997.]",protonated amine,water
269,[NH3+]c1cc([N+](=O)[O-])cc(C(F)(F)F)c1,O,0,0,0.82,[0.82],"[Hunt et al.. J. Chem. Inf. Model, 2020, 60 (6), 2989-2997.]",protonated amine,water
270,C[NH+]1CCN(c2cc3c(cc2F)c(=O)c(C(=O)[O-])cn3-c2ccc(F)cc2)CC1,O,0,0,7.39,[7.39],"[Hunt et al.. J. Chem. Inf. Model, 2020, 60 (6), 2989-2997.]",protonated amine,water
271,SC1CCCCC1,O,0,0,10.69,[10.69],"[Hunt et al.. J. Chem. Inf. Model, 2020, 60 (6), 2989-2997.]",thiol,water
272,CCCC[NH+](CCCl)CCCl,O,0,0,6.61,[6.61],"[Hunt et al.. J. Chem. Inf. Model, 2020, 60 (6), 2989-2997.]",protonated amine,water
273,O=P(O)(Oc1ccc2ccccc2c1)Oc1ccc2ccccc2c1,O,0,0,0.74,[0.74],"[Hunt et al.. J. Chem. Inf. Model, 2020, 60 (6), 2989-2997.]",phosphoric acid,water
274,CC(=O)Nc1ccc(O)cc1,O,0,0,9.63,[9.63],"[Hunt et al.. J. Chem. Inf. Model, 2020, 60 (6), 2989-2997.]",phenol,water
275,O=C(O)c1ccccc1,CS(=O)C,65-85-0,benzoic acid,11.05,"[11.1, 11.0]","[Kutt et al., Tetrahedron Lett., 2018., Kutt et al., Eur. J. Org. Chem., 2021, 2021 (9), 1407-1419.]",carboxylic acid,DMSO
276,COc1cccc(C(=O)NCC[NH+]2CCC(Oc3ccc(Cl)c(Cl)c3)CC2)c1,O,0,0,7.4,[7.4],"[Hunt et al.. J. Chem. Inf. Model, 2020, 60 (6), 2989-2997.]",protonated amine,water
277,O=C(CC[NH+]1CCOCC1)C(c1ccccc1)c1ccccc1,O,0,0,6.39,[6.39],"[Hunt et al.. J. Chem. Inf. Model, 2020, 60 (6), 2989-2997.]",protonated amine,water
278,O=C(COc1ccc(Cl)cc1)NO,O,0,0,8.75,[8.75],"[Hunt et al.. J. Chem. Inf. Model, 2020, 60 (6), 2989-2997.]",amine,water
279,CC(C)CC[N@@H+](CC[N+]1(C)CCCCC1)c1ccccc1,O,0,0,3.06,[3.06],"[Hunt et al.. J. Chem. Inf. Model, 2020, 60 (6), 2989-2997.]",protonated amine,water
280,Cc1ccc(C)c([NH3+])c1,O,0,0,4.53,[4.53],"[Hunt et al.. J. Chem. Inf. Model, 2020, 60 (6), 2989-2997.]",protonated amine,water
281,O=C(O)Cc1ccccc1[N+](=O)[O-],O,0,0,4.004,[4.004],"[Hunt et al.. J. Chem. Inf. Model, 2020, 60 (6), 2989-2997.]",carboxylic acid,water
282,[NH3+]c1ccc(C(=O)OC(F)(F)C(F)(F)F)cc1,O,0,0,3.78,[3.78],"[Hunt et al.. J. Chem. Inf. Model, 2020, 60 (6), 2989-2997.]",protonated amine,water
283,Cc1ccccc1C[NH3+],O,0,0,9.19,[9.19],"[Hunt et al.. J. Chem. Inf. Model, 2020, 60 (6), 2989-2997.]",protonated amine,water
284,CC[C@@](C)(C[NH+](C)C)OC(=O)c1ccccc1,O,0,0,8.09,[8.09],"[Hunt et al.. J. Chem. Inf. Model, 2020, 60 (6), 2989-2997.]",protonated amine,water
285,Br,O,10035-10-6,bromane,-8.8,"[-8.8, -8.8]","[Kutt et al., Tetrahedron Lett., 2018., Kutt et al., Eur. J. Org. Chem., 2021, 2021 (9), 1407-1419.]",inorganic,water
286,N#Cc1ccc([NH3+])cc1,O,0,0,1.739,[1.739],"[Hunt et al.. J. Chem. Inf. Model, 2020, 60 (6), 2989-2997.]",protonated amine,water
287,CCCCC[C@@H](C)[NH3+],O,0,0,10.67,[10.67],"[Hunt et al.. J. Chem. Inf. Model, 2020, 60 (6), 2989-2997.]",protonated amine,water
288,CCCCc1cc(C)c(O)cc1C,O,0,0,10.74,[10.74],"[Hunt et al.. J. Chem. Inf. Model, 2020, 60 (6), 2989-2997.]",phenol,water
289,CC(C)c1ccc([NH3+])cc1,O,0,0,4.85,[4.85],"[Hunt et al.. J. Chem. Inf. Model, 2020, 60 (6), 2989-2997.]",protonated amine,water
290,c1ccc(C[NH+]2CCCCC2)nc1,O,0,0,8.51,[8.51],"[Hunt et al.. J. Chem. Inf. Model, 2020, 60 (6), 2989-2997.]",protonated amine,water
291,Cc1cccc(C)c1OC[C@H](C)[NH3+],O,0,0,9.13,[9.13],"[Hunt et al.. J. Chem. Inf. Model, 2020, 60 (6), 2989-2997.]",protonated amine,water
292,CCCCC[NH+](C[C@@H](C)O)C[C@@H](C)O,O,0,0,9,[9.0],"[Hunt et al.. J. Chem. Inf. Model, 2020, 60 (6), 2989-2997.]",protonated amine,water
293,CCC[NH+](CCC)CCc1ccc(O)c(NC(C)=O)c1,O,0,0,9.775,"[8.75, 10.8]","[Hunt et al.. J. Chem. Inf. Model, 2020, 60 (6), 2989-2997. ,   Hunt et al.. J. Chem. Inf. Model, 2020, 60 (6), 2989-2997.]",protonated amine,water
294,CC(C)(C)N[P+](N1CCCC1)(N1CCCC1)N1CCCC1,C1CCOC1,-,(tert-butylamino)-tripyrrolidin-1-ylphosphanium,20.2,"[20.2, 20.2]","[Kutt et al., Tetrahedron Lett., 2018., Tshepelvitsh et al., Eur. J. Org. Chem., 2019, 6735-6748.]",amine,THF
295,[NH3+][C@@H](CS)C(=O)[O-],O,0,0,8.4,[8.4],"[Hunt et al.. J. Chem. Inf. Model, 2020, 60 (6), 2989-2997.]",protonated amine,water
296,O=C(O)COc1ccc(Cl)cc1,O,0,0,3.18,[3.18],"[Hunt et al.. J. Chem. Inf. Model, 2020, 60 (6), 2989-2997.]",carboxylic acid,water
297,O=S(=O)(NS(=O)(=O)C(F)(F)C(F)(F)C(F)(F)C(F)(F)F)C(F)(F)C(F)(F)C(F)(F)C(F)(F)F,C(CCl)Cl,39847-39-7,"1,1,2,2,3,3,4,4,4-nonafluoro-N-(1,1,2,2,3,3,4,4,4-nonafluorobutylsulfonyl)butane-1-sulfonamide",32.6,[32.6],"[Paenurk et al., Chem. Sci., 2017, 8, 6964-6973.]",amine,DCE
298,CCOC(=O)C(C#N)c1c(F)c(F)c(Cl)c(F)c1F,CC#N,55810-56-5,"ethyl 2-(4-chloro-2,3,5,6-tetrafluorophenyl)-2-cyanoacetate",17.3875,"[17.39, 17.39, 17.39, 17.38]","[Paenurk et al., Chem. Sci., 2017, 8, 6964-6973., Paenurk et al., Chem. Sci., 2017, 8, 6964-6973., Eckert et al., J. Comput. Chem., 2009, 30, 799-810., Kutt et al., Eur. J. Org. Chem., 2021, 2021 (9), 1407-1419.]",C-H acid,acetonitrile
299,[NH3+]c1ccccc1Cl,O,0,0,2.65,[2.65],"[Hunt et al.. J. Chem. Inf. Model, 2020, 60 (6), 2989-2997.]",protonated amine,water
300,CS(=O)(=O)c1cccc(C(=O)O)c1,O,0,0,3.52,[3.52],"[Hunt et al.. J. Chem. Inf. Model, 2020, 60 (6), 2989-2997.]",carboxylic acid,water
301,O=[N+]([O-])c1ccc([NH2+]Cc2cccc(F)c2)c([N+](=O)[O-])c1,O,0,0,-5.46,[-5.46],"[Hunt et al.. J. Chem. Inf. Model, 2020, 60 (6), 2989-2997.]",protonated amine,water
302,COc1ccc(C[NH+](C)C)cc1,O,0,0,9.32,[9.32],"[Hunt et al.. J. Chem. Inf. Model, 2020, 60 (6), 2989-2997.]",protonated amine,water
303,O=C(O)c1cc([N+](=O)[O-])cc([N+](=O)[O-])c1,O,0,0,2.82,[2.82],"[Hunt et al.. J. Chem. Inf. Model, 2020, 60 (6), 2989-2997.]",carboxylic acid,water
304,C[NH+](C)CCCN1c2ccccc2CCc2ccc(Cl)cc21,O,0,0,9.4,[9.4],"[Hunt et al.. J. Chem. Inf. Model, 2020, 60 (6), 2989-2997.]",protonated amine,water
305,Cc1ccc(C(=O)NO)cc1,O,0,0,8.9,[8.9],"[Hunt et al.. J. Chem. Inf. Model, 2020, 60 (6), 2989-2997.]",amine,water
306,[NH3+]c1ccccc1Br,O,0,0,2.53,[2.53],"[Hunt et al.. J. Chem. Inf. Model, 2020, 60 (6), 2989-2997.]",protonated amine,water
307,O[C@H](c1ccccc1)[C@@H]1CCCC[NH2+]1,O,0,0,9.57,[9.57],"[Hunt et al.. J. Chem. Inf. Model, 2020, 60 (6), 2989-2997.]",protonated amine,water
308,O=[N+]([O-])c1ccc2[nH]ccc2c1,O,6146-52-7,5-nitro-1H-indole,14.75,[14.75],"[Kutt et al., Eur. J. Org. Chem., 2021, 2021 (9), 1407-1419.]",amine,water
309,Oc1cccc(Br)c1,O,0,0,8.87,[8.87],"[Hunt et al.. J. Chem. Inf. Model, 2020, 60 (6), 2989-2997.]",phenol,water
310,COc1cc[nH+]c(N)c1,O,0,0,7.62,[7.62],"[Hunt et al.. J. Chem. Inf. Model, 2020, 60 (6), 2989-2997.]",protonated amine,water
311,Cc1cc(C)c([N+](=O)[O-])c(C)c1O,O,0,0,8.86,[8.86],"[Hunt et al.. J. Chem. Inf. Model, 2020, 60 (6), 2989-2997.]",phenol,water
312,NCCCCC[NH3+],O,-,5-aminopentylazanium,10.85,[10.85],"[Tshepelvitsh et al., Eur. J. Org. Chem., 2019, 6735-6748.]",protonated amine,water
313,OC[C@H](O)CS,O,0,0,9.46,[9.46],"[Hunt et al.. J. Chem. Inf. Model, 2020, 60 (6), 2989-2997.]",thiol,water
314,Oc1cnc2ncccc2n1,O,0,0,7.88,[7.88],"[Hunt et al.. J. Chem. Inf. Model, 2020, 60 (6), 2989-2997.]",phenol,water
315,O=[N+]([O-])c1cc(-c2ccccc2)c(O)c([N+](=O)[O-])c1,O,0,0,3.848,[3.848],"[Hunt et al.. J. Chem. Inf. Model, 2020, 60 (6), 2989-2997.]",phenol,water
316,Cc1ccccc1/N=N/c1ccc(O)c(C(=O)O)c1,O,0,0,2.12,[2.12],"[Hunt et al.. J. Chem. Inf. Model, 2020, 60 (6), 2989-2997.]",carboxylic acid,water
317,C[Si](C)(C)c1cccc([NH3+])c1,O,0,0,4.64,[4.64],"[Hunt et al.. J. Chem. Inf. Model, 2020, 60 (6), 2989-2997.]",protonated amine,water
318,Oc1ccc2c(c1)CCC2,O,0,0,10.32,[10.32],"[Hunt et al.. J. Chem. Inf. Model, 2020, 60 (6), 2989-2997.]",phenol,water
319,Oc1c(F)c(F)c(C(F)(F)F)c(F)c1F,CC#N,2787-79-3,"2,3,5,6-tetrafluoro-4-(trifluoromethyl)phenol",16.61333333,"[16.62, 16.6, 16.62]","[Eckert et al., J. Comput. Chem., 2009, 30, 799-810., Kutt et al., Eur. J. Org. Chem., 2021, 2021 (9), 1407-1419., Paenurk et al., Chem. Sci., 2017, 8, 6964-6973.]",phenol,acetonitrile
320,O=C(NS(=O)(=O)N1CCC(N2CCC(Oc3ccc(Cl)c(Cl)c3)CC2)CC1)c1ccccc1,O,0,0,4.3,[4.3],"[Hunt et al.. J. Chem. Inf. Model, 2020, 60 (6), 2989-2997.]",amine,water
321,Cc1c([N+](=O)[O-])cc(C(=O)O)cc1[N+](=O)[O-],O,0,0,2.97,[2.97],"[Hunt et al.. J. Chem. Inf. Model, 2020, 60 (6), 2989-2997.]",carboxylic acid,water
322,N#CCCO,O,0,0,14.03,[14.03],"[Hunt et al.. J. Chem. Inf. Model, 2020, 60 (6), 2989-2997.]",hydroxyl alcohol,water
323,c1cc[nH+]nc1,CC#N,-,pyridazin-1-ium,10.065,"[10.07, 10.06]","[Lokov et al., Eur. J. Org. Chem., 2017, 30, 4475-4489., Tshepelvitsh et al., Eur. J. Org. Chem., 2019, 6735-6748.]",protonated amine,acetonitrile
324,N#CC(c1c(F)c(F)c(F)c(F)c1F)c1c(F)c(F)c(F)c(F)c1F,O,42238-34-6,"2,2-bis(2,3,4,5,6-pentafluorophenyl)acetonitrile",9.5,[9.5],"[Kutt et al., Eur. J. Org. Chem., 2021, 2021 (9), 1407-1419.]",C-H acid,water
325,CC(C)(C)c1ccccc1[NH3+],O,0,0,5.03,[5.03],"[Hunt et al.. J. Chem. Inf. Model, 2020, 60 (6), 2989-2997.]",protonated amine,water
326,[NH3+]c1cccc(OC(F)(F)C(F)F)c1,O,0,0,3.38,[3.38],"[Hunt et al.. J. Chem. Inf. Model, 2020, 60 (6), 2989-2997.]",protonated amine,water
327,CCCC[N@H+]1CCCC[C@H]1C,O,0,0,10.7,[10.7],"[Hunt et al.. J. Chem. Inf. Model, 2020, 60 (6), 2989-2997.]",protonated amine,water
328,Oc1c(Cl)ccc(Cl)c1Cl,O,0,0,5.8,[5.8],"[Hunt et al.. J. Chem. Inf. Model, 2020, 60 (6), 2989-2997.]",phenol,water
329,C[NH+]1CCN(C2=c3ccccc3=[NH+]c3ccc(Cl)cc3N2)CC1,O,0,0,3.9,[3.9],"[Hunt et al.. J. Chem. Inf. Model, 2020, 60 (6), 2989-2997.]",protonated amine,water
330,[NH3+]CCF,O,0,0,9,[9.0],"[Hunt et al.. J. Chem. Inf. Model, 2020, 60 (6), 2989-2997.]",protonated amine,water
331,c1csc([C@@H]2CCC[NH2+]2)c1,O,0,0,9.35,[9.35],"[Hunt et al.. J. Chem. Inf. Model, 2020, 60 (6), 2989-2997.]",protonated amine,water
332,Cc1ccc(C)c(C(=[NH2+])c2ccccc2)c1,O,0,0,6.79,[6.79],"[Hunt et al.. J. Chem. Inf. Model, 2020, 60 (6), 2989-2997.]",protonated amine,water
333,N#Cc1ccccc1O,O,0,0,6.98,[6.98],"[Hunt et al.. J. Chem. Inf. Model, 2020, 60 (6), 2989-2997.]",phenol,water
334,C[NH2+]c1ccc(Cl)cc1[N+](=O)[O-],O,0,0,-1.49,[-1.49],"[Hunt et al.. J. Chem. Inf. Model, 2020, 60 (6), 2989-2997.]",protonated amine,water
335,CC[NH+](C)CC,CS(=O)C,-,diethyl(methyl)azanium,9,[9.0],"[Tshepelvitsh et al., Eur. J. Org. Chem., 2019, 6735-6748.]",protonated amine,DMSO
336,COC(=O)c1ccc([NH3+])cc1C,O,0,0,2.73,[2.73],"[Hunt et al.. J. Chem. Inf. Model, 2020, 60 (6), 2989-2997.]",protonated amine,water
337,c1ccc2[nH+]c[nH]c2c1,CS(=O)C,-,1H-benzimidazol-3-ium,4.36,[4.36],"[Tshepelvitsh et al., Eur. J. Org. Chem., 2019, 6735-6748.]",protonated amine,DMSO
338,CCCC[NH+](CCCC)CCCC,CC#N,-,tributylazanium,18.09,[18.09],"[Tshepelvitsh et al., Eur. J. Org. Chem., 2019, 6735-6748.]",protonated amine,acetonitrile
339,CN(C)CCCC[NH+](C)C,C1CCOC1,-,4-(dimethylamino)butyl-dimethylazanium,13.1,[13.1],"[Tshepelvitsh et al., Eur. J. Org. Chem., 2019, 6735-6748.]",protonated amine,THF
340,C1CCC2=NCCC[NH+]2CC1,C1CCOC1,-,"3,4,5,6,7,8,9,10-octahydro-2H-pyrimido[1,2-a]azepin-5-ium",16.75,"[16.6, 16.9]","[Kutt et al., Tetrahedron Lett., 2018., Tshepelvitsh et al., Eur. J. Org. Chem., 2019, 6735-6748.]",protonated amine,THF
341,Cc1ccc([C@@H]2CCC[NH2+]2)cc1,O,0,0,9.95,[9.95],"[Hunt et al.. J. Chem. Inf. Model, 2020, 60 (6), 2989-2997.]",protonated amine,water
342,C[NH3+],CS(=O)C,17000-00-9,methylazanium,11,[11.0],"[Tshepelvitsh et al., Eur. J. Org. Chem., 2019, 6735-6748.]",protonated amine,DMSO
343,O=[N+]([O-])c1ccc(Cl)cc1O,O,0,0,6.05,[6.05],"[Hunt et al.. J. Chem. Inf. Model, 2020, 60 (6), 2989-2997.]",phenol,water
344,Oc1ccc2ccnnc2c1,O,0,0,7.59,[7.59],"[Hunt et al.. J. Chem. Inf. Model, 2020, 60 (6), 2989-2997.]",phenol,water
345,CC(C)(C)[NH2+]C[C@H](O)COc1nsnc1N1CCOCC1,O,0,0,8.8,[8.8],"[Hunt et al.. J. Chem. Inf. Model, 2020, 60 (6), 2989-2997.]",protonated amine,water
346,N#CC(c1c(F)c(F)c(F)c(F)c1F)c1c(F)c(F)c(Cl)c(F)c1F,CC#N,42238-36-8,"2-(4-chloro-2,3,5,6-tetrafluorophenyl)-2-(2,3,4,5,6-pentafluorophenyl)acetonitrile",20.36,"[20.36, 20.36, 20.36, 20.36, 20.36]","[Paenurk et al., Chem. Sci., 2017, 8, 6964-6973., Kutt et al., Eur. J. Org. Chem., 2021, 2021 (9), 1407-1419., Paenurk et al., Chem. Sci., 2017, 8, 6964-6973., Eckert et al., J. Comput. Chem., 2009, 30, 799-810., Kutt et al., Eur. J. Org. Chem., 2021, 2021 (9), 1407-1419.]",C-H acid,acetonitrile
347,CCCc1ccccc1[NH3+],O,0,0,4.36,[4.36],"[Hunt et al.. J. Chem. Inf. Model, 2020, 60 (6), 2989-2997.]",protonated amine,water
348,C[NH2+]C1CCCC1,O,0,0,10.85,[10.85],"[Hunt et al.. J. Chem. Inf. Model, 2020, 60 (6), 2989-2997.]",protonated amine,water
349,CC[NH3+],CC#N,16999-99-8,ethylazanium,18.4,[18.4],"[Tshepelvitsh et al., Eur. J. Org. Chem., 2019, 6735-6748.]",protonated amine,acetonitrile
350,CN1CC[NH+](CC(=O)N2c3ccccc3C(=O)[N-]c3cccnc32)CC1,O,0,0,10.71,[10.71],"[Hunt et al.. J. Chem. Inf. Model, 2020, 60 (6), 2989-2997.]",protonated amine,water
351,Nc1c(C(F)(F)F)c(C(F)(F)F)c(C(F)(F)F)c(C(F)(F)F)c1C(F)(F)F,CC#N,58956-76-6,"2,3,4,5,6-pentakis(trifluoromethyl)aniline",24.58,"[24.59, 24.57, 24.57, 24.59]","[Eckert et al., J. Comput. Chem., 2009, 30, 799-810., Kutt et al., Eur. J. Org. Chem., 2021, 2021 (9), 1407-1419., Kutt et al., Eur. J. Org. Chem., 2021, 2021 (9), 1407-1419., Paenurk et al., Chem. Sci., 2017, 8, 6964-6973.]",amine,acetonitrile
352,CCC[N@@H+](CC[N+]1(C)CCCCC1)c1ccccc1,O,0,0,2.82,[2.82],"[Hunt et al.. J. Chem. Inf. Model, 2020, 60 (6), 2989-2997.]",protonated amine,water
353,CCOC(=O)N1CCC2(CC1)Nc1ccsc1C(N)=[NH+]2,O,0,0,10.47,[10.47],"[Hunt et al.. J. Chem. Inf. Model, 2020, 60 (6), 2989-2997.]",protonated amine,water
354,Oc1ccccc1-c1ccccc1O,O,0,0,7.56,[7.56],"[Hunt et al.. J. Chem. Inf. Model, 2020, 60 (6), 2989-2997.]",phenol,water
355,NS(=O)(=O)c1cccc([NH3+])c1,O,0,0,2.9,[2.9],"[Hunt et al.. J. Chem. Inf. Model, 2020, 60 (6), 2989-2997.]",protonated amine,water
356,Nc1ccc([N+](=O)[O-])c[nH+]1,O,0,0,2.78,[2.78],"[Hunt et al.. J. Chem. Inf. Model, 2020, 60 (6), 2989-2997.]",protonated amine,water
357,Cc1cc(Br)ccc1[NH3+],O,0,0,3.58,[3.58],"[Hunt et al.. J. Chem. Inf. Model, 2020, 60 (6), 2989-2997.]",protonated amine,water
358,CC/C=C(/CC)C(=O)O,O,0,0,4.58,[4.58],"[Hunt et al.. J. Chem. Inf. Model, 2020, 60 (6), 2989-2997.]",carboxylic acid,water
359,O=[N+]([O-])c1ccc(O)cc1,O,0,0,7.15,[7.15],"[Hunt et al.. J. Chem. Inf. Model, 2020, 60 (6), 2989-2997.]",phenol,water
360,Nc1cccc2cccc([NH3+])c12,CC#N,-,(8-aminonaphthalen-1-yl)azanium,10.99,[10.99],"[Tshepelvitsh et al., Eur. J. Org. Chem., 2019, 6735-6748.]",protonated amine,acetonitrile
361,CC[C@H](C)c1ccc(O)c([N+](=O)[O-])c1,O,0,0,7.59,[7.59],"[Hunt et al.. J. Chem. Inf. Model, 2020, 60 (6), 2989-2997.]",phenol,water
362,CC[NH+](CC)CC,CC#N,17440-81-2,triethylazanium,18.73,"[18.63, 18.83]","[Kutt et al., Tetrahedron Lett., 2018., Tshepelvitsh et al., Eur. J. Org. Chem., 2019, 6735-6748.]",protonated amine,acetonitrile
363,CC(C)C[NH+](CC(C)C)CC(C)C,O,0,0,10.32,[10.32],"[Hunt et al.. J. Chem. Inf. Model, 2020, 60 (6), 2989-2997.]",protonated amine,water
364,C=CC[NH+](CC=C)CC=C,O,0,0,8.31,[8.31],"[Hunt et al.. J. Chem. Inf. Model, 2020, 60 (6), 2989-2997.]",protonated amine,water
365,N#CCC(=C(C#N)C#N)C(C#N)C#N,C(CCl)Cl,2638-14-4,"2-(cyanomethyl)prop-1-ene-1,1,3,3-tetracarbonitrile",32.6,[32.6],"[Paenurk et al., Chem. Sci., 2017, 8, 6964-6973.]",C-H acid,DCE
366,c1cncc(C[NH+]2CCCCC2)c1,O,0,0,8.3,[8.3],"[Hunt et al.. J. Chem. Inf. Model, 2020, 60 (6), 2989-2997.]",protonated amine,water
367,CCOc1ccc(O)cc1,O,0,0,10.3,[10.3],"[Hunt et al.. J. Chem. Inf. Model, 2020, 60 (6), 2989-2997.]",phenol,water
368,O=S(=O)(NS(=O)(=NS(=O)(=O)C(F)(F)F)c1ccc(Cl)cc1)c1ccc(Cl)cc1,C(CCl)Cl,174788-95-5,-,37.1,"[37.1, 37.1]","[Kutt et al., Eur. J. Org. Chem., 2021, 2021 (9), 1407-1419., Paenurk et al., Chem. Sci., 2017, 8, 6964-6973.]",amine,DCE
369,C[C@@H]([NH3+])[C@@H](O)c1ccccc1,O,0,0,9.05,[9.05],"[Hunt et al.. J. Chem. Inf. Model, 2020, 60 (6), 2989-2997.]",protonated amine,water
370,CC(C)[NH+](CCCl)CCCl,O,0,0,6.98,[6.98],"[Hunt et al.. J. Chem. Inf. Model, 2020, 60 (6), 2989-2997.]",protonated amine,water
371,CCCC[NH+](CCCC)c1ccccc1,O,0,0,6.3,[6.3],"[Hunt et al.. J. Chem. Inf. Model, 2020, 60 (6), 2989-2997.]",protonated amine,water
372,O=C(O)c1ccc(O)cc1O,O,0,0,3.22,[3.22],"[Hunt et al.. J. Chem. Inf. Model, 2020, 60 (6), 2989-2997.]",carboxylic acid,water
373,COC(=O)C1c2ccccc2-c2ccccc21,C(CCl)Cl,3002-30-0,methyl 9H-fluorene-9-carboxylate,58.1,"[58.1, 58.1]","[Kutt et al., Eur. J. Org. Chem., 2021, 2021 (9), 1407-1419., Paenurk et al., Chem. Sci., 2017, 8, 6964-6973.]",C-H acid,DCE
374,O=C(c1ccccc1)N1CC[NH+](Cc2ccccc2)CC1,O,0,0,6.2,[6.2],"[Hunt et al.. J. Chem. Inf. Model, 2020, 60 (6), 2989-2997.]",protonated amine,water
375,CCSc1ccc([NH3+])cc1,O,0,0,4,[4.0],"[Hunt et al.. J. Chem. Inf. Model, 2020, 60 (6), 2989-2997.]",protonated amine,water
376,C[N@@H+]1CCC[C@H]1c1cccnc1,O,0,0,8.1,[8.1],"[Hunt et al.. J. Chem. Inf. Model, 2020, 60 (6), 2989-2997.]",protonated amine,water
377,C1CC[NH2+]CC1,C1CCOC1,17523-59-0,piperidin-1-ium,14.3,[14.3],"[Tshepelvitsh et al., Eur. J. Org. Chem., 2019, 6735-6748.]",protonated amine,THF
378,CCCC[NH3+],O,0,0,10.645,"[10.7, 10.59]","[Hunt et al.. J. Chem. Inf. Model, 2020, 60 (6), 2989-2997. ,   Tshepelvitsh et al., Eur. J. Org. Chem., 2019, 6735-6748.]",protonated amine,water
379,NCCCC[NH3+],CS(=O)C,-,4-aminobutylazanium,12.6,[12.6],"[Tshepelvitsh et al., Eur. J. Org. Chem., 2019, 6735-6748.]",protonated amine,DMSO