,Solute SMILES,Solvent SMILES,Solute CAS,Solute IUPAC,pKa (avg),pKa (all),Source (all),Acid type,Solvent name
1612,COc1ccc(OC)c(C[C@@H]([NH3+])CO)c1,O,0,0,9.18,[9.18],"[Hunt et al.. J. Chem. Inf. Model, 2020, 60 (6), 2989-2997.]",protonated amine,water
1613,Oc1cncnc1,O,0,0,6.8,[6.8],"[Hunt et al.. J. Chem. Inf. Model, 2020, 60 (6), 2989-2997.]",phenol,water
1614,O=C(O)COc1ccc(Cl)cc1Cl,O,0,0,2.64,[2.64],"[Hunt et al.. J. Chem. Inf. Model, 2020, 60 (6), 2989-2997.]",carboxylic acid,water
1615,[NH3+]CCc1ccccc1,O,0,0,9.84,[9.84],"[Hunt et al.. J. Chem. Inf. Model, 2020, 60 (6), 2989-2997.]",protonated amine,water
1616,O=C(O)CC(=O)O,O,0,0,2.85,[2.85],"[Hunt et al.. J. Chem. Inf. Model, 2020, 60 (6), 2989-2997.]",carboxylic acid,water
1617,c1cncc(C[NH+]2CCCC2)c1,O,0,0,8.36,[8.36],"[Hunt et al.. J. Chem. Inf. Model, 2020, 60 (6), 2989-2997.]",protonated amine,water
1618,O=[N+]([O-])c1cc([N+](=O)[O-])c(Nc2c([N+](=O)[O-])cc([N+](=O)[O-])cc2[N+](=O)[O-])c([N+](=O)[O-])c1,CN(C)C=O,131-73-7,"2,4,6-trinitro-N-(2,4,6-trinitrophenyl)aniline",1.28,[1.28],"[Kutt et al., Eur. J. Org. Chem., 2021, 2021 (9), 1407-1419.]",amine,DMF
1619,CCc1[nH]cc[nH+]1,O,0,0,7.8,[7.8],"[Hunt et al.. J. Chem. Inf. Model, 2020, 60 (6), 2989-2997.]",protonated amine,water
1620,O=[N+]([O-])c1cccc([NH2+][C@H]2CCc3ccccc32)c1,O,0,0,-0.46,[-0.46],"[Hunt et al.. J. Chem. Inf. Model, 2020, 60 (6), 2989-2997.]",protonated amine,water
1621,COc1ccc(NS(=O)(=O)c2ccccc2)cc1,O,0,0,8.7,[8.7],"[Hunt et al.. J. Chem. Inf. Model, 2020, 60 (6), 2989-2997.]",amine,water
1622,C[NH2+]CCCN1c2ccccc2CCc2ccccc21,O,0,0,10.23,"[10.3, 10.16]","[Hunt et al.. J. Chem. Inf. Model, 2020, 60 (6), 2989-2997., Hunt et al.. J. Chem. Inf. Model, 2020, 60 (6), 2989-2997.]",protonated amine,water
1623,COC(=O)c1ccc[nH+]c1N,O,0,0,4.78,[4.78],"[Hunt et al.. J. Chem. Inf. Model, 2020, 60 (6), 2989-2997.]",protonated amine,water
1624,C[C@@H](CCc1ccccc1)NC[C@H](O)c1ccc(O)c(C(N)=O)c1,O,0,0,7.3,[7.3],"[Hunt et al.. J. Chem. Inf. Model, 2020, 60 (6), 2989-2997.]",phenol,water
1625,NCC[NH3+],CS(=O)C,-,2-aminoethylazanium,11.1,[11.1],"[Tshepelvitsh et al., Eur. J. Org. Chem., 2019, 6735-6748.]",protonated amine,DMSO
1626,C[NH+](C)C[C@H](O)c1ccc(O)cc1,O,0,0,9.56,[9.56],"[Hunt et al.. J. Chem. Inf. Model, 2020, 60 (6), 2989-2997.]",protonated amine,water
1627,C[NH+](C)[C@@H]1CCc2ccccc2C1,O,0,0,9.5,[9.5],"[Hunt et al.. J. Chem. Inf. Model, 2020, 60 (6), 2989-2997.]",protonated amine,water
1628,Fc1c(F)c(F)c(Nc2c(F)c(F)c(F)c(F)c2F)c(F)c1F,CC#N,1535-92-8,"2,3,4,5,6-pentafluoro-N-(2,3,4,5,6-pentafluorophenyl)aniline",23.98,[23.98],"[Kutt et al., Eur. J. Org. Chem., 2021, 2021 (9), 1407-1419.]",amine,acetonitrile
1629,Cc1ccc([NH+](C)C)cc1,O,0,0,5.627,[5.627],"[Hunt et al.. J. Chem. Inf. Model, 2020, 60 (6), 2989-2997.]",protonated amine,water
1630,CC[NH2+]c1ccc([N+](=O)[O-])cc1,O,0,0,0.94,[0.94],"[Hunt et al.. J. Chem. Inf. Model, 2020, 60 (6), 2989-2997.]",protonated amine,water
1631,Oc1c(Br)cc(Br)cc1Br,O,118-79-6,"2,4,6-tribromophenol",6.1,[6.1],"[Kutt et al., Eur. J. Org. Chem., 2021, 2021 (9), 1407-1419.]",phenol,water
1632,Oc1ccc(F)cc1,O,0,0,9.95,[9.95],"[Hunt et al.. J. Chem. Inf. Model, 2020, 60 (6), 2989-2997.]",phenol,water
1633,CCCCC[C@@H](C)[NH2+]C,O,0,0,10.82,[10.82],"[Hunt et al.. J. Chem. Inf. Model, 2020, 60 (6), 2989-2997.]",protonated amine,water
1634,[NH3+]c1ccc(F)c([N+](=O)[O-])c1,O,0,0,2.44,[2.44],"[Hunt et al.. J. Chem. Inf. Model, 2020, 60 (6), 2989-2997.]",protonated amine,water
1635,[NH3+]c1ccccc1I,O,0,0,2.6,[2.6],"[Hunt et al.. J. Chem. Inf. Model, 2020, 60 (6), 2989-2997.]",protonated amine,water
1636,C[NH+](C)c1ccc(Br)cc1,O,0,0,4.232,[4.232],"[Hunt et al.. J. Chem. Inf. Model, 2020, 60 (6), 2989-2997.]",protonated amine,water
1637,COc1ccc(OC)c([NH3+])c1,O,0,0,3.93,[3.93],"[Hunt et al.. J. Chem. Inf. Model, 2020, 60 (6), 2989-2997.]",protonated amine,water
1638,CC(=O)c1cccc(-c2ccccc2O)c1,O,0,0,10.91,[10.91],"[Hunt et al.. J. Chem. Inf. Model, 2020, 60 (6), 2989-2997.]",phenol,water
1639,C[C@H]1COc2c(N3CCN(C)CC3)c(F)cc3c(=O)c(C(=O)O)cn1c23,O,0,0,6.06,[6.06],"[Hunt et al.. J. Chem. Inf. Model, 2020, 60 (6), 2989-2997.]",carboxylic acid,water
1640,Nc1cnccc1O,O,0,0,11.38,[11.38],"[Hunt et al.. J. Chem. Inf. Model, 2020, 60 (6), 2989-2997.]",phenol,water
1641,Oc1cc(-c2ccccc2)ccc1Cl,O,0,0,8.07,[8.07],"[Hunt et al.. J. Chem. Inf. Model, 2020, 60 (6), 2989-2997.]",phenol,water
1642,Cc1[nH+]cc([N+](=O)[O-])n1CCO,O,0,0,2.51,[2.51],"[Hunt et al.. J. Chem. Inf. Model, 2020, 60 (6), 2989-2997.]",protonated amine,water
1643,CCOC(=O)C(C#N)c1c(F)c(F)cc(F)c1F,CS(=O)C,55852-22-7,"ethyl 2-cyano-2-(2,3,5,6-tetrafluorophenyl)acetate",4.9,[4.9],"[Kutt et al., Eur. J. Org. Chem., 2021, 2021 (9), 1407-1419.]",C-H acid,DMSO
1644,Oc1c(C(F)(F)F)c(C(F)(F)F)c(C(F)(F)F)c(C(F)(F)F)c1C(F)(F)F,CS(=O)C,723294-91-5,"2,3,4,5,6-pentakis(trifluoromethyl)phenol",3.1,[3.1],"[Kutt et al., Eur. J. Org. Chem., 2021, 2021 (9), 1407-1419.]",phenol,DMSO
1645,Oc1ccccc1Cc1ccccc1O,O,0,0,7.5,[7.5],"[Hunt et al.. J. Chem. Inf. Model, 2020, 60 (6), 2989-2997.]",phenol,water
1646,CCOc1ccc([NH3+])cc1,O,0,0,5.2,[5.2],"[Hunt et al.. J. Chem. Inf. Model, 2020, 60 (6), 2989-2997.]",protonated amine,water
1647,C1C[NH+]2CCN1CC2,O,49623-77-0,4-aza-1-azoniabicyclo[2.2.2]octane,8.82,[8.82],"[Tshepelvitsh et al., Eur. J. Org. Chem., 2019, 6735-6748.]",protonated amine,water
1648,CC(C)(C)[N@H+]1CCCC(=O)[C@H](O)CCC1,O,0,0,7.6,[7.6],"[Hunt et al.. J. Chem. Inf. Model, 2020, 60 (6), 2989-2997.]",protonated amine,water
1649,Cc1ccc(S(=O)(=O)NS(=O)(=NS(=O)(=O)C(F)(F)F)c2ccc(Cl)cc2)cc1,C(CCl)Cl,174788-93-3,N-(4-chloro-N-((trifluoromethyl)sulfonyl)phenylsulfonimidoyl)-4-methylbenzenesulfonamide,38,"[38.0, 38.0]","[Kutt et al., Eur. J. Org. Chem., 2021, 2021 (9), 1407-1419., Paenurk et al., Chem. Sci., 2017, 8, 6964-6973.]",amine,DCE
1650,CC(C)[NH2+]C[C@H](O)c1ccc(Cl)c(Cl)c1,O,0,0,9.27,[9.27],"[Hunt et al.. J. Chem. Inf. Model, 2020, 60 (6), 2989-2997.]",protonated amine,water
1651,CC(C)[NH2+]C[C@H](O)c1cccc(I)c1,O,0,0,9.36,[9.36],"[Hunt et al.. J. Chem. Inf. Model, 2020, 60 (6), 2989-2997.]",protonated amine,water
1652,CCCNc1nccc[nH+]1,O,0,0,4.09,[4.09],"[Hunt et al.. J. Chem. Inf. Model, 2020, 60 (6), 2989-2997.]",protonated amine,water
1653,Oc1ccc(Br)cc1,O,0,0,9.34,[9.34],"[Hunt et al.. J. Chem. Inf. Model, 2020, 60 (6), 2989-2997.]",phenol,water
1654,CCC(CC)NC(=O)c1c(C)nn(C(C)C)c1NS(=O)(=O)c1ccc(C)cc1,O,0,0,4.7,[4.7],"[Hunt et al.. J. Chem. Inf. Model, 2020, 60 (6), 2989-2997.]",amine,water
1655,Oc1cccc2cccnc12,O,0,0,9.81,[9.81],"[Hunt et al.. J. Chem. Inf. Model, 2020, 60 (6), 2989-2997.]",phenol,water
1656,CCOC(=O)C(C[C@H](C)[NH+](C)C)(c1ccccc1)c1ccccc1,O,0,0,10.12,[10.12],"[Hunt et al.. J. Chem. Inf. Model, 2020, 60 (6), 2989-2997.]",protonated amine,water
1657,C1NCC2C[NH2+]CC1C2,CC#N,,,21.56,[21.56],"[Tshepelvitsh et al., Eur. J. Org. Chem., 2019, 6735-6748.]",protonated amine,acetonitrile
1658,CCOC(=O)COc1ccc([NH3+])cc1,O,0,0,5.09,[5.09],"[Hunt et al.. J. Chem. Inf. Model, 2020, 60 (6), 2989-2997.]",protonated amine,water
1659,O=C1C[C@H](S)C(=O)N1,O,0,0,6.7,[6.7],"[Hunt et al.. J. Chem. Inf. Model, 2020, 60 (6), 2989-2997.]",thiol,water
1660,C[NH2+]c1ccc([N+](=O)[O-])cc1,O,0,0,0.55,[0.55],"[Hunt et al.. J. Chem. Inf. Model, 2020, 60 (6), 2989-2997.]",protonated amine,water
1661,Oc1nc(O)nc(O)n1,O,0,0,6.78,[6.78],"[Hunt et al.. J. Chem. Inf. Model, 2020, 60 (6), 2989-2997.]",hydroxyl alcohol,water
1662,Cn1c(=O)c2nc[nH]c2n(C)c1=O,O,0,0,8.51,[8.51],"[Hunt et al.. J. Chem. Inf. Model, 2020, 60 (6), 2989-2997.]",amine,water
1663,CC(C=CC1=C(C)CCCC1(C)C)=CC=CC(C)=CC(=O)O,CC#N,302-79-4,"3,7-dimethyl-9-(2,6,6-trimethylcyclohexen-1-yl)nona-2,4,6,8-tetraenoic acid",22.77666667,"[22.78, 22.78, 22.77]","[Kutt et al., Eur. J. Org. Chem., 2021, 2021 (9), 1407-1419., Kutt et al., Eur. J. Org. Chem., 2021, 2021 (9), 1407-1419., Paenurk et al., Chem. Sci., 2017, 8, 6964-6973.]",carboxylic acid,acetonitrile
1664,CC(C)OP(=O)(OC(C)C)SCC[NH+](C)C,O,0,0,7.7,[7.7],"[Hunt et al.. J. Chem. Inf. Model, 2020, 60 (6), 2989-2997.]",protonated amine,water
1665,Clc1cccc[nH+]1,CC#N,,2-chloropyridin-1-ium,6.79,[6.79],"[Lokov et al., Eur. J. Org. Chem., 2017, 30, 4475-4489.]",protonated amine,acetonitrile
1666,Oc1cccc2scnc12,O,0,0,8.85,[8.85],"[Hunt et al.. J. Chem. Inf. Model, 2020, 60 (6), 2989-2997.]",phenol,water
1667,c1ccc2[nH+]c(-c3cscn3)[nH]c2c1,CC#N,,"4-(1H-benzimidazol-3-ium-2-yl)-1,3-thiazole",12.42,[12.42],"[Lokov et al., Eur. J. Org. Chem., 2017, 30, 4475-4489.]",protonated amine,acetonitrile
1668,CC[NH+](CC)c1ccc(C)cc1,O,0,0,7.13,[7.13],"[Hunt et al.. J. Chem. Inf. Model, 2020, 60 (6), 2989-2997.]",protonated amine,water
1669,[NH3+]Cc1c(F)c(F)c(F)c(F)c1F,O,0,0,7.67,[7.67],"[Hunt et al.. J. Chem. Inf. Model, 2020, 60 (6), 2989-2997.]",protonated amine,water
1670,CC[NH+](CC)CCOC(=O)c1ccc(N)cc1,O,0,0,9.1,[9.1],"[Hunt et al.. J. Chem. Inf. Model, 2020, 60 (6), 2989-2997.]",protonated amine,water
1671,O=C(O)c1ccccc1O,O,0,0,2.78,[2.78],"[Hunt et al.. J. Chem. Inf. Model, 2020, 60 (6), 2989-2997.]",carboxylic acid,water
1672,NS(=O)(=O)c1ccc(Cl)c(Cl)c1,CC#N,23815-28-3,"3,4-dichlorobenzenesulfonamide",23.29,[23.29],"[Eckert et al., J. Comput. Chem., 2009, 30, 799-810.]",amine,acetonitrile
1673,O=C(O)c1cc(Cl)cc(Cl)c1,CC#N,51-36-5,"3,5-dichlorobenzoic acid",18.7,[18.7],"[Eckert et al., J. Comput. Chem., 2009, 30, 799-810.]",carboxylic acid,acetonitrile
1674,Oc1c(F)c(F)c(F)c(F)c1F,CS(=O)C,771-61-9,"2,3,4,5,6-pentafluorophenol",8.9,[8.9],"[Kutt et al., Eur. J. Org. Chem., 2021, 2021 (9), 1407-1419.]",phenol,DMSO
1675,CCCCOc1cccc(C(=O)O)c1,O,0,0,4.25,[4.25],"[Hunt et al.. J. Chem. Inf. Model, 2020, 60 (6), 2989-2997.]",carboxylic acid,water
1676,NS(=O)(=O)c1cccc(C(F)(F)F)c1,O,672-58-2,3-(trifluoromethyl)benzenesulfonamide,9.69,[9.69],"[Kutt et al., Eur. J. Org. Chem., 2021, 2021 (9), 1407-1419.]",amine,water
1677,c1ccc2c[nH+]ccc2c1,O,-,isoquinolin-2-ium,5.46,"[5.46, 5.46]","[Lokov et al., Eur. J. Org. Chem., 2017, 30, 4475-4489., Tshepelvitsh et al., Eur. J. Org. Chem., 2019, 6735-6748.]",protonated amine,water
1678,Oc1c(Cl)cc(Cl)c(Cl)c1Cl,O,0,0,5.22,[5.22],"[Hunt et al.. J. Chem. Inf. Model, 2020, 60 (6), 2989-2997.]",phenol,water
1679,[NH3+]c1ccc2cc([N+](=O)[O-])ccc2c1,O,0,0,2.62,[2.62],"[Hunt et al.. J. Chem. Inf. Model, 2020, 60 (6), 2989-2997.]",protonated amine,water
1680,Cc1ccc(O)c(C)c1,O,0,0,10.45,[10.45],"[Hunt et al.. J. Chem. Inf. Model, 2020, 60 (6), 2989-2997.]",phenol,water
1681,C=C(C)C(=O)O,O,0,0,4.66,[4.66],"[Hunt et al.. J. Chem. Inf. Model, 2020, 60 (6), 2989-2997.]",carboxylic acid,water
1682,Cc1ccc(S(=O)(=O)NS(=O)(=O)C(F)(F)F)cc1,CC#N,215395-07-6,4-methyl-N-(trifluoromethylsulfonyl)benzenesulfonamide,5.906,"[6.17, 5.86, 5.82, 5.82, 5.86]","[Eckert et al., J. Comput. Chem., 2009, 30, 799-810.,  Kutt et al., J. Org. Chem., 2011, 76, 391-395., Kutt et al., Eur. J. Org. Chem., 2021, 2021 (9), 1407-1419., Kutt et al., Eur. J. Org. Chem., 2021, 2021 (9), 1407-1419., Paenurk et al., Chem. Sci., 2017, 8, 6964-6973.]",amine,acetonitrile
1683,C[NH2+][C@H]1CCCC[C@@H]1Cl,O,0,0,9.85,[9.85],"[Hunt et al.. J. Chem. Inf. Model, 2020, 60 (6), 2989-2997.]",protonated amine,water
1684,O=C1O[C@@H](C(O)=C1O)[C@H](CO)O,O,0,0,11.57,[11.57],"[Hunt et al.. J. Chem. Inf. Model, 2020, 60 (6), 2989-2997.]",hydroxyl alcohol,water
1685,Oc1ccc2cnccc2c1,O,0,0,9.17,[9.17],"[Hunt et al.. J. Chem. Inf. Model, 2020, 60 (6), 2989-2997.]",phenol,water
1686,CCOC(=O)[C@H](CCc1ccccc1)[NH2+][C@@H](C)C(=O)N1CCC[C@H]1C(=O)O,O,0,0,4.75,"[3.1, 6.4]","[Hunt et al.. J. Chem. Inf. Model, 2020, 60 (6), 2989-2997. ,   Hunt et al.. J. Chem. Inf. Model, 2020, 60 (6), 2989-2997.]",protonated amine,water
1687,C[n+]1cc(O)c2ccccc2c1,O,0,0,4.9,[4.9],"[Hunt et al.. J. Chem. Inf. Model, 2020, 60 (6), 2989-2997.]",phenol,water
1688,C[N@H+](Cc1ccccc1)CC(c1ccccc1)c1ccccc1,O,0,0,7.5,[7.5],"[Hunt et al.. J. Chem. Inf. Model, 2020, 60 (6), 2989-2997.]",protonated amine,water
1689,CC(C)(C)CC(C)(C)[NH3+],O,0,0,10.73,[10.73],"[Hunt et al.. J. Chem. Inf. Model, 2020, 60 (6), 2989-2997.]",protonated amine,water
1690,c1cncc([C@H]2CCCC[NH2+]2)c1,O,0,0,11,[11.0],"[Hunt et al.. J. Chem. Inf. Model, 2020, 60 (6), 2989-2997.]",protonated amine,water
1691,[NH3+]c1ccc2ccccc2c1[N+](=O)[O-],O,0,0,-0.85,[-0.85],"[Hunt et al.. J. Chem. Inf. Model, 2020, 60 (6), 2989-2997.]",protonated amine,water
1692,N#CC(C#N)c1c(F)c(F)c2c(F)c(F)c(F)c(F)c2c1F,CC#N,62325-35-3,"2-(1,3,4,5,6,7,8-heptafluoronaphthalen-2-yl)propanedinitrile",12.23,"[12.23, 12.23, 12.23, 12.23]","[Eckert et al., J. Comput. Chem., 2009, 30, 799-810., Paenurk et al., Chem. Sci., 2017, 8, 6964-6973., Kutt et al., Eur. J. Org. Chem., 2021, 2021 (9), 1407-1419., Paenurk et al., Chem. Sci., 2017, 8, 6964-6973.]",C-H acid,acetonitrile
1693,CC[C@H]([NH3+])C(=O)N[C@H](C#N)Cc1ccc(-c2ccccc2)cc1,O,0,0,7.3,[7.3],"[Hunt et al.. J. Chem. Inf. Model, 2020, 60 (6), 2989-2997.]",protonated amine,water
1694,[NH3+]c1ccc(F)cc1[N+](=O)[O-],O,0,0,-0.44,[-0.44],"[Hunt et al.. J. Chem. Inf. Model, 2020, 60 (6), 2989-2997.]",protonated amine,water
1695,N#CC(C#N)=C(c1cc(C(F)(F)F)cc(C(F)(F)F)c1)C(C#N)C#N,C(CCl)Cl,1261286-79-6,,33,[33.0],"[Paenurk et al., Chem. Sci., 2017, 8, 6964-6973.]",C-H acid,DCE
1696,OCC[NH2+]C(CO)(CO)CO,O,0,0,7.83,[7.83],"[Hunt et al.. J. Chem. Inf. Model, 2020, 60 (6), 2989-2997.]",protonated amine,water
1697,COc1c(N2CCN[C@H](C)C2)c(F)cc2c(=O)c(C(=O)O)cn(C3CC3)c12,O,0,0,6.05,[6.05],"[Hunt et al.. J. Chem. Inf. Model, 2020, 60 (6), 2989-2997.]",carboxylic acid,water
1698,C1C[NH2+]CCN1,O,8057-14-5,piperazin-1-ium,9.72,[9.72],"[Tshepelvitsh et al., Eur. J. Org. Chem., 2019, 6735-6748.]",protonated amine,water
1699,CC[C@@](C)(S)[C@H]([NH3+])C(=O)[O-],O,0,0,8.1,[8.1],"[Hunt et al.. J. Chem. Inf. Model, 2020, 60 (6), 2989-2997.]",protonated amine,water
1700,CC[C@H]1C[N@@H+]2CC[C@H]1C[C@H]2[C@H](O)c1ccnc2ccc(OC)cc12,O,0,0,9.1,[9.1],"[Hunt et al.. J. Chem. Inf. Model, 2020, 60 (6), 2989-2997.]",protonated amine,water
1701,CCOc1ccc(N/C(C)=[NH+]/c2ccc(OCC)cc2)cc1,O,0,0,9.3,[9.3],"[Hunt et al.. J. Chem. Inf. Model, 2020, 60 (6), 2989-2997.]",protonated amine,water
1702,CC(C)(S)[C@@H]([NH3+])C(=O)[O-],O,0,0,7.9,[7.9],"[Hunt et al.. J. Chem. Inf. Model, 2020, 60 (6), 2989-2997.]",protonated amine,water
1703,CCOC(=O)C(C#N)c1c(F)c(F)nc(F)c1F,CC#N,55810-61-2,"ethyl 2-cyano-2-(2,3,5,6-tetrafluoropyridin-4-yl)acetate",14.8975,"[14.9, 14.9, 14.9, 14.89]","[Paenurk et al., Chem. Sci., 2017, 8, 6964-6973., Paenurk et al., Chem. Sci., 2017, 8, 6964-6973., Eckert et al., J. Comput. Chem., 2009, 30, 799-810., Kutt et al., Eur. J. Org. Chem., 2021, 2021 (9), 1407-1419.]",C-H acid,acetonitrile
1704,Oc1ncnc2ccccc12,O,0,0,9.87,[9.87],"[Hunt et al.. J. Chem. Inf. Model, 2020, 60 (6), 2989-2997.]",phenol,water
1705,N#Cc1ccc(C[C@@H](C(=O)O)N2CCC(C[NH+]3CCC(Oc4ccc(Cl)c(Cl)c4)CC3)CC2)cc1,O,0,0,8.9,[8.9],"[Hunt et al.. J. Chem. Inf. Model, 2020, 60 (6), 2989-2997.]",protonated amine,water
1706,O=C(O)CCO,CC#N,503-66-2,3-hydroxypropanoic acid,21,[21.0],"[Eckert et al., J. Comput. Chem., 2009, 30, 799-810.]",carboxylic acid,acetonitrile
1707,[NH3+]c1ccc2c(c1)Cc1ccccc1-2,O,0,0,4.64,[4.64],"[Hunt et al.. J. Chem. Inf. Model, 2020, 60 (6), 2989-2997.]",protonated amine,water
1708,O=COO,O,0,0,7.1,[7.1],"[Hunt et al.. J. Chem. Inf. Model, 2020, 60 (6), 2989-2997.]",acidic hydroxyl,water
1709,CCC1=[NH+][C@@H](CC)CS1,O,0,0,5.36,[5.36],"[Hunt et al.. J. Chem. Inf. Model, 2020, 60 (6), 2989-2997.]",protonated amine,water
1710,C[NH2+]CCCCc1ccccc1,O,0,0,10.8,[10.8],"[Hunt et al.. J. Chem. Inf. Model, 2020, 60 (6), 2989-2997.]",protonated amine,water
1711,N#CC(c1c(F)c(F)nc(F)c1F)c1c(F)c(F)nc(F)c1F,CS(=O)C,64934-72-1,"2,2-bis(2,3,5,6-tetrafluoropyridin-4-yl)acetonitrile",2.4,[2.4],"[Paenurk et al., Chem. Sci., 2017, 8, 6964-6973.]",C-H acid,DMSO
1712,N#CC(C#N)C#N,C(CCl)Cl,454-50-2,methanetricarbonitrile,38.6,"[38.6, 38.6]","[Kutt et al., Eur. J. Org. Chem., 2021, 2021 (9), 1407-1419., Paenurk et al., Chem. Sci., 2017, 8, 6964-6973.]",C-H acid,DCE
1713,CC(=O)C[C@H](c1ccccc1)c1c(O)c2ccccc2oc1=O,O,0,0,5.1,[5.1],"[Hunt et al.. J. Chem. Inf. Model, 2020, 60 (6), 2989-2997.]",phenol,water
1714,Cc1cc2ccccc2c(C(=O)O)c1C,O,0,0,3.28,[3.28],"[Hunt et al.. J. Chem. Inf. Model, 2020, 60 (6), 2989-2997.]",carboxylic acid,water
1715,[NH3+]c1ccc(C=O)cc1,O,0,0,1.76,[1.76],"[Hunt et al.. J. Chem. Inf. Model, 2020, 60 (6), 2989-2997.]",protonated amine,water
1716,Cc1ccc(C(=O)NS(=O)(=O)C(F)(F)F)cc1,CC#N,343337-70-2,4-methyl-N-(trifluoromethylsulfonyl)benzamide,11.46,"[11.46, 11.46, 11.46]","[Eckert et al., J. Comput. Chem., 2009, 30, 799-810., Kutt et al., Eur. J. Org. Chem., 2021, 2021 (9), 1407-1419., Paenurk et al., Chem. Sci., 2017, 8, 6964-6973.]",amine,acetonitrile
1717,Nc1ccc2nccnc2[nH+]1,O,0,0,4.25,[4.25],"[Hunt et al.. J. Chem. Inf. Model, 2020, 60 (6), 2989-2997.]",protonated amine,water
1718,CCCC[C@@H](CC)COP(=O)(O)OC[C@H](CC)CCCC,O,0,0,2.85,[2.85],"[Hunt et al.. J. Chem. Inf. Model, 2020, 60 (6), 2989-2997.]",phosphoric acid,water
1719,[NH3+]CCc1cscn1,O,0,0,9.48,[9.48],"[Hunt et al.. J. Chem. Inf. Model, 2020, 60 (6), 2989-2997.]",protonated amine,water
1720,Oc1ccc(C2CCCCC2)cc1Cl,O,0,0,8.66,[8.66],"[Hunt et al.. J. Chem. Inf. Model, 2020, 60 (6), 2989-2997.]",phenol,water
1721,COC(=O)CS,O,0,0,8.08,[8.08],"[Hunt et al.. J. Chem. Inf. Model, 2020, 60 (6), 2989-2997.]",thiol,water
1722,N#Cc1ccc2[nH]c(-c3ccc(F)cc3)c(CCCC(=O)NS(N)(=O)=O)c2c1,O,0,0,5.9,[5.9],"[Hunt et al.. J. Chem. Inf. Model, 2020, 60 (6), 2989-2997.]",amine,water
1723,Oc1c(/N=N/c2ccccn2)ccc2ccccc12,O,0,0,7.9,[7.9],"[Hunt et al.. J. Chem. Inf. Model, 2020, 60 (6), 2989-2997.]",phenol,water
1724,[NH3+]C[C@H](Oc1cc(Cl)ccc1Cl)c1ccccc1,O,0,0,8.5,[8.5],"[Hunt et al.. J. Chem. Inf. Model, 2020, 60 (6), 2989-2997.]",protonated amine,water
1725,Cc1ccccc1[NH+](C)C,O,0,0,6.11,[6.11],"[Hunt et al.. J. Chem. Inf. Model, 2020, 60 (6), 2989-2997.]",protonated amine,water
1726,c1ccc(CCC[NH2+]C(Cc2ccccc2)Cc2ccccc2)cc1,O,0,0,7.2,[7.2],"[Hunt et al.. J. Chem. Inf. Model, 2020, 60 (6), 2989-2997.]",protonated amine,water
1727,Cc1cccc(CCC(=O)O)c1,O,0,0,4.68,[4.68],"[Hunt et al.. J. Chem. Inf. Model, 2020, 60 (6), 2989-2997.]",carboxylic acid,water
1728,Cc1cc([NH3+])cc(C)c1[N+](=O)[O-],O,0,0,2.59,[2.59],"[Hunt et al.. J. Chem. Inf. Model, 2020, 60 (6), 2989-2997.]",protonated amine,water
1729,CC[C@H](S)C(=O)O,O,0,0,3.53,[3.53],"[Hunt et al.. J. Chem. Inf. Model, 2020, 60 (6), 2989-2997.]",carboxylic acid,water
1730,CC(=O)NC[C@H]1CN(c2ccc([NH+]3CCOCC3)c(F)c2)C(=O)O1,O,0,0,6.81,[6.81],"[Hunt et al.. J. Chem. Inf. Model, 2020, 60 (6), 2989-2997.]",protonated amine,water
1731,C[Si](C)(C)C[NH2+]c1ccccc1,O,0,0,5.3,[5.3],"[Hunt et al.. J. Chem. Inf. Model, 2020, 60 (6), 2989-2997.]",protonated amine,water
1732,Oc1cccc(Cl)c1Cl,O,0,0,7.7,[7.7],"[Hunt et al.. J. Chem. Inf. Model, 2020, 60 (6), 2989-2997.]",phenol,water
1733,O=[N+]([O-])c1ccc(S(=O)(=O)NS(=O)(=NS(=O)(=O)C(F)(F)F)c2ccc(Cl)cc2)cc1,CC#N,174788-97-7,,3.33,[3.33],"[Paenurk et al., Chem. Sci., 2017, 8, 6964-6973.]",amine,acetonitrile
1734,C[N@@H+]1CCc2cccc3c2[C@H]1Cc1ccc(O)c(O)c1-3,O,0,0,8.92,[8.92],"[Hunt et al.. J. Chem. Inf. Model, 2020, 60 (6), 2989-2997.]",protonated amine,water
1735,[NH3+]c1ccc(S(=O)(=O)C(F)(F)F)cc1,O,0,0,-0.01,[-0.01],"[Hunt et al.. J. Chem. Inf. Model, 2020, 60 (6), 2989-2997.]",protonated amine,water
1736,N#Cc1ccc(O)cc1,CC#N,767-00-0,4-hydroxybenzonitrile,22.7,[22.7],"[Eckert et al., J. Comput. Chem., 2009, 30, 799-810.]",phenol,acetonitrile
1737,C[NH2+]C,O,49784-85-2,dimethylazanium,10.685,"[10.64, 10.73]","[Tshepelvitsh et al., Eur. J. Org. Chem., 2019, 6735-6748. ,   Hunt et al.. J. Chem. Inf. Model, 2020, 60 (6), 2989-2997.]",protonated amine,water
1738,O=C(O)[C@H](c1ccccc1)[NH+]1CCC(N2CCC(Oc3ccc(Cl)c(Cl)c3)CC2)CC1,O,0,0,9.1,[9.1],"[Hunt et al.. J. Chem. Inf. Model, 2020, 60 (6), 2989-2997.]",protonated amine,water
1739,CCC(CC)NC(=O)c1cnn(-c2ccccc2)c1NS(=O)(=O)C1CCCC1,O,0,0,4.5,[4.5],"[Hunt et al.. J. Chem. Inf. Model, 2020, 60 (6), 2989-2997.]",amine,water