,Solute SMILES,Solvent SMILES,Solute CAS,Solute IUPAC,pKa (avg),pKa (all),Source (all),Acid type,Solvent name
2353,O=C1c2cccc(O)c2C(=O)c2c(O)cccc21,O,0,0,8.3,[8.3],"[Hunt et al.. J. Chem. Inf. Model, 2020, 60 (6), 2989-2997.]",phenol,water
2354,CCCCCCCC[NH3+],O,0,0,10.65,[10.65],"[Hunt et al.. J. Chem. Inf. Model, 2020, 60 (6), 2989-2997.]",protonated amine,water
2355,CC[NH3+],O,0,0,10.665,"[10.7, 10.63]","[Hunt et al.. J. Chem. Inf. Model, 2020, 60 (6), 2989-2997. ,   Tshepelvitsh et al., Eur. J. Org. Chem., 2019, 6735-6748.]",protonated amine,water
2356,O=C(O)Cc1ccccc1Cl,O,0,0,4.07,[4.07],"[Hunt et al.. J. Chem. Inf. Model, 2020, 60 (6), 2989-2997.]",carboxylic acid,water
2357,CC(C)c1ccccc1O,O,0,0,10.47,[10.47],"[Hunt et al.. J. Chem. Inf. Model, 2020, 60 (6), 2989-2997.]",phenol,water
2358,O=[N+]([O-])C1=NC=C[NH2+]1,O,,2-nitro-1H-imidazol-1-ium,-0.81,[-0.81],"[Lokov et al., Eur. J. Org. Chem., 2017, 30, 4475-4489.]",protonated amine,water
2359,O=C(O)c1ccc(Br)cc1,CC#N,586-76-5,4-bromobenzoic acid,20.3,[20.3],"[Eckert et al., J. Comput. Chem., 2009, 30, 799-810.]",carboxylic acid,acetonitrile
2360,O=[S@@](Cc1ccccn1)c1nc2ccccc2[nH]1,O,0,0,8.8,[8.8],"[Hunt et al.. J. Chem. Inf. Model, 2020, 60 (6), 2989-2997.]",amine,water
2361,c1ccc2c(c1)ccc1[nH+]cccc12,CC#N,,benzo[f]quinolin-4-ium,11.96,[11.96],"[Lokov et al., Eur. J. Org. Chem., 2017, 30, 4475-4489.]",protonated amine,acetonitrile
2362,CC(C)(C)[P@@H](=O)O,O,0,0,4.24,[4.24],"[Hunt et al.. J. Chem. Inf. Model, 2020, 60 (6), 2989-2997.]",acidic hydroxyl,water
2363,CCCCNC(=O)NS(=O)(=O)c1ccc(C)cc1,O,0,0,5.3,[5.3],"[Hunt et al.. J. Chem. Inf. Model, 2020, 60 (6), 2989-2997.]",amine,water
2364,C[N+](C)(C)c1ccc(O)cc1,O,0,0,8.35,[8.35],"[Hunt et al.. J. Chem. Inf. Model, 2020, 60 (6), 2989-2997.]",phenol,water
2365,CC[NH+](CC)[C@@H](C)C=C(c1cccs1)c1cccs1,O,0,0,8.85,[8.85],"[Hunt et al.. J. Chem. Inf. Model, 2020, 60 (6), 2989-2997.]",protonated amine,water
2366,c1ccc([NH2+]C2CCCCC2)cc1,O,0,0,5.6,[5.6],"[Hunt et al.. J. Chem. Inf. Model, 2020, 60 (6), 2989-2997.]",protonated amine,water
2367,CC(C)[NH2+]CCc1ccc(O)cc1,O,0,0,9.49,[9.49],"[Hunt et al.. J. Chem. Inf. Model, 2020, 60 (6), 2989-2997.]",protonated amine,water
2368,Cc1[nH+]c2c(OCc3ccccc3)cccn2c1CC#N,O,0,0,5.6,[5.6],"[Hunt et al.. J. Chem. Inf. Model, 2020, 60 (6), 2989-2997.]",protonated amine,water
2369,CC[NH+](CC)CCNC(=O)c1ccc(N)cc1,O,0,0,9.29,[9.29],"[Hunt et al.. J. Chem. Inf. Model, 2020, 60 (6), 2989-2997.]",protonated amine,water
2370,COC(=O)C1=CCC[N@H+](C)C1,O,0,0,7.64,[7.64],"[Hunt et al.. J. Chem. Inf. Model, 2020, 60 (6), 2989-2997.]",protonated amine,water
2371,CC(=O)c1ccc(O)cc1,O,0,0,8.05,[8.05],"[Hunt et al.. J. Chem. Inf. Model, 2020, 60 (6), 2989-2997.]",phenol,water
2372,c1ccc2[nH][nH+]cc2c1,CC#N,-,1H-indazol-2-ium,7.61,"[7.61, 7.61]","[Lokov et al., Eur. J. Org. Chem., 2017, 30, 4475-4489., Tshepelvitsh et al., Eur. J. Org. Chem., 2019, 6735-6748.]",protonated amine,acetonitrile
2373,CC[NH+](CC)CC,O,17440-81-2,triethylazanium,10.75,"[10.7, 10.65, 10.9]","[Kutt et al., Tetrahedron Lett., 2018., Tshepelvitsh et al., Eur. J. Org. Chem., 2019, 6735-6748. ,   Hunt et al.. J. Chem. Inf. Model, 2020, 60 (6), 2989-2997.]",protonated amine,water
2374,C[NH+](C)c1cccc([N+](C)(C)C)c1,O,0,0,2.6,[2.6],"[Hunt et al.. J. Chem. Inf. Model, 2020, 60 (6), 2989-2997.]",protonated amine,water
2375,CC[C@H]1CSC(C)=[NH+]1,O,0,0,5.301,[5.301],"[Hunt et al.. J. Chem. Inf. Model, 2020, 60 (6), 2989-2997.]",protonated amine,water
2376,Oc1cnc2ccccc2c1,O,0,0,8.08,[8.08],"[Hunt et al.. J. Chem. Inf. Model, 2020, 60 (6), 2989-2997.]",phenol,water
2377,Cc1cc(C)nc(O)n1,O,0,0,10.5,[10.5],"[Hunt et al.. J. Chem. Inf. Model, 2020, 60 (6), 2989-2997.]",hydroxyl alcohol,water
2378,Cc1cc(Br)cc(C)c1[NH3+],O,0,0,3.54,[3.54],"[Hunt et al.. J. Chem. Inf. Model, 2020, 60 (6), 2989-2997.]",protonated amine,water
2379,Nc1ccc[nH+]c1N,CC#N,,"pyridin-1-ium-2,3-diamine",15.24,[15.24],"[Lokov et al., Eur. J. Org. Chem., 2017, 30, 4475-4489.]",protonated amine,acetonitrile
2380,c1ccc([C@H]2CCCC[NH2+]2)nc1,O,0,0,9.1,[9.1],"[Hunt et al.. J. Chem. Inf. Model, 2020, 60 (6), 2989-2997.]",protonated amine,water
2381,C[C@H](O)C(=O)O,O,0,0,3.861,[3.861],"[Hunt et al.. J. Chem. Inf. Model, 2020, 60 (6), 2989-2997.]",carboxylic acid,water
2382,O=S(=O)(Nc1ccc(Cl)cc1)c1ccccc1,O,0,0,7.93,[7.93],"[Hunt et al.. J. Chem. Inf. Model, 2020, 60 (6), 2989-2997.]",amine,water
2383,Oc1cnc2ccccc2n1,O,0,0,9.14,[9.14],"[Hunt et al.. J. Chem. Inf. Model, 2020, 60 (6), 2989-2997.]",phenol,water
2384,CC(C)[NH2+]C[C@H](O)c1ccc([N-]S(C)(=O)=O)cc1,O,0,0,9.3,[9.3],"[Hunt et al.. J. Chem. Inf. Model, 2020, 60 (6), 2989-2997.]",protonated amine,water
2385,[NH3+]c1c(Cl)c(Cl)c(Cl)c(Cl)c1Cl,CC#N,,"(2,3,4,5,6-pentachlorophenyl)azanium",2.35,[2.35],"[Lokov et al., Eur. J. Org. Chem., 2017, 30, 4475-4489.]",protonated amine,acetonitrile
2386,CC[C@@H]([NH3+])c1ccccc1,O,0,0,9.3,[9.3],"[Hunt et al.. J. Chem. Inf. Model, 2020, 60 (6), 2989-2997.]",protonated amine,water
2387,Oc1c(Cl)cc(Cl)c2cccnc12,O,0,0,7.62,[7.62],"[Hunt et al.. J. Chem. Inf. Model, 2020, 60 (6), 2989-2997.]",phenol,water
2388,C[N@@H+]1CCC[C@H]1c1ccccc1,O,0,0,8.8,[8.8],"[Hunt et al.. J. Chem. Inf. Model, 2020, 60 (6), 2989-2997.]",protonated amine,water
2389,Oc1cc(Cl)ccc1Cl,O,0,0,7.51,[7.51],"[Hunt et al.. J. Chem. Inf. Model, 2020, 60 (6), 2989-2997.]",phenol,water
2390,O=C(CC[NH+]1CCCCC1)C(c1ccccc1)c1ccccc1,O,0,0,9.45,[9.45],"[Hunt et al.. J. Chem. Inf. Model, 2020, 60 (6), 2989-2997.]",protonated amine,water
2391,O=[N+]([O-])c1cccc2cc[nH]c12,CC#N,6960-42-5,7-nitro-1H-indole,29.99,"[29.99, 29.99]","[Kutt et al., Eur. J. Org. Chem., 2021, 2021 (9), 1407-1419., Kutt et al., Eur. J. Org. Chem., 2021, 2021 (9), 1407-1419.]",amine,acetonitrile
2392,[NH3+]CCc1c[nH]cn1,O,0,0,9.7,[9.7],"[Hunt et al.. J. Chem. Inf. Model, 2020, 60 (6), 2989-2997.]",protonated amine,water
2393,CCOC(=O)c1ccc[nH+]c1N,O,0,0,4.73,[4.73],"[Hunt et al.. J. Chem. Inf. Model, 2020, 60 (6), 2989-2997.]",protonated amine,water
2394,C[NH+](C)c1cccc(C(F)(F)F)c1,O,0,0,3.27,[3.27],"[Hunt et al.. J. Chem. Inf. Model, 2020, 60 (6), 2989-2997.]",protonated amine,water
2395,O=[N+]([O-])c1ccc(S(=O)(=O)NS(=O)(=O)c2c(F)c(F)c(F)c(F)c2F)cc1,CC#N,1171188-93-4,"2,3,4,5,6-pentafluoro-N-((4-nitrophenyl)sulfonyl)benzenesulfonamide",6.6,"[6.6, 6.6, 6.6]","[ Kutt et al., J. Org. Chem., 2011, 76, 391-395., Kutt et al., Eur. J. Org. Chem., 2021, 2021 (9), 1407-1419., Paenurk et al., Chem. Sci., 2017, 8, 6964-6973.]",amine,acetonitrile
2396,Nc1[nH+]ccc2ccccc12,O,0,0,7.59,[7.59],"[Hunt et al.. J. Chem. Inf. Model, 2020, 60 (6), 2989-2997.]",protonated amine,water
2397,CC(C)[NH2+]CCc1ccccc1,O,0,0,10.02,[10.02],"[Hunt et al.. J. Chem. Inf. Model, 2020, 60 (6), 2989-2997.]",protonated amine,water
2398,[NH3+]c1ccc(Br)cc1,CC#N,,(4-bromophenyl)azanium,9.43,[9.43],"[Lokov et al., Eur. J. Org. Chem., 2017, 30, 4475-4489.]",protonated amine,acetonitrile
2399,[NH3+][C@@H]1CCc2c(ccc(O)c2O)C1,O,0,0,9.433333333,"[8.9, 8.9, 10.5]","[Hunt et al.. J. Chem. Inf. Model, 2020, 60 (6), 2989-2997. ,   Hunt et al.. J. Chem. Inf. Model, 2020, 60 (6), 2989-2997. ,   Hunt et al.. J. Chem. Inf. Model, 2020, 60 (6), 2989-2997.]",protonated amine,water
2400,Cc1cccc(C)c1[NH+](C)C,O,0,0,4.3,[4.3],"[Hunt et al.. J. Chem. Inf. Model, 2020, 60 (6), 2989-2997.]",protonated amine,water
2401,C[Si](C)(C)C[NH2+]C[Si](C)(C)C,O,0,0,11.4,[11.4],"[Hunt et al.. J. Chem. Inf. Model, 2020, 60 (6), 2989-2997.]",protonated amine,water
2402,O=C(NO)c1cccc([N+](=O)[O-])c1,O,0,0,8.07,[8.07],"[Hunt et al.. J. Chem. Inf. Model, 2020, 60 (6), 2989-2997.]",amine,water
2403,CC(C)(C)c1cc(C(C)(C)C)c(O)c(C(C)(C)C)c1,O,0,0,12.19,[12.19],"[Hunt et al.. J. Chem. Inf. Model, 2020, 60 (6), 2989-2997.]",phenol,water
2404,Oc1ccc(-c2ccccc2)cc1,O,0,0,9.55,[9.55],"[Hunt et al.. J. Chem. Inf. Model, 2020, 60 (6), 2989-2997.]",phenol,water
2405,[NH3+]Cc1ccccc1,C1CCOC1,-,benzylazanium,12.1,[12.1],"[Tshepelvitsh et al., Eur. J. Org. Chem., 2019, 6735-6748.]",protonated amine,THF
2406,Cc1c(F)c(F)c([C@@H](C#N)c2c(F)c(F)c(F)c(F)c2F)c(F)c1F,CC#N,52345-34-3,"(R)-2-(perfluorophenyl)-2-(2,3,5,6-tetrafluoro-4-methylphenyl)acetonitrile",21.94,"[21.94, 21.94]","[Eckert et al., J. Comput. Chem., 2009, 30, 799-810., Kutt et al., Eur. J. Org. Chem., 2021, 2021 (9), 1407-1419.]",C-H acid,acetonitrile
2407,COC(=O)CC(C(=O)O)(c1ccccc1)c1ccccc1,O,0,0,3.899,[3.899],"[Hunt et al.. J. Chem. Inf. Model, 2020, 60 (6), 2989-2997.]",carboxylic acid,water
2408,CCC[N@H+](CC)c1ccccc1,O,0,0,6.39,[6.39],"[Hunt et al.. J. Chem. Inf. Model, 2020, 60 (6), 2989-2997.]",protonated amine,water
2409,O=C(NCCS)NCCS,O,0,0,9.26,[9.26],"[Hunt et al.. J. Chem. Inf. Model, 2020, 60 (6), 2989-2997.]",thiol,water
2410,CC(C)[NH3+],O,,propan-2-ylazanium,10.64,"[10.65, 10.63]","[Tshepelvitsh et al., Eur. J. Org. Chem., 2019, 6735-6748. ,   Hunt et al.. J. Chem. Inf. Model, 2020, 60 (6), 2989-2997.]",protonated amine,water
2411,C[C@H]([NH3+])c1ccc(Cl)cc1,O,0,0,9.1,[9.1],"[Hunt et al.. J. Chem. Inf. Model, 2020, 60 (6), 2989-2997.]",protonated amine,water
2412,CN(C)[P+](N)(N(C)C)N(C)C,CC#N,-,amino-tris(dimethylamino)phosphanium,25.85,[25.85],"[Tshepelvitsh et al., Eur. J. Org. Chem., 2019, 6735-6748.]",amine,acetonitrile
2413,C=CCc1c(C)nc(NC)[nH+]c1C,O,0,0,5.31,[5.31],"[Hunt et al.. J. Chem. Inf. Model, 2020, 60 (6), 2989-2997.]",protonated amine,water
2414,O=C(NS(=O)(=O)c1ccc(Cl)cc1)N1CCC([NH+]2CCC(Oc3ccc(Cl)c(Cl)c3)CC2)CC1,O,0,0,2.5,[2.5],"[Hunt et al.. J. Chem. Inf. Model, 2020, 60 (6), 2989-2997.]",protonated amine,water
2415,CC1=N[C@](c2cccc(-c3cncc(Cl)c3)c2)(C2CC2)[NH+]=C1N,O,0,0,6.04,[6.04],"[Hunt et al.. J. Chem. Inf. Model, 2020, 60 (6), 2989-2997.]",protonated amine,water
2416,NS(=O)(=O)c1c(F)c(F)c(F)c(F)c1F,O,778-36-9,"2,3,4,5,6-pentafluorobenzenesulfonamide",8.3,[8.3],"[Kutt et al., Eur. J. Org. Chem., 2021, 2021 (9), 1407-1419.]",amine,water
2417,O=C(O)c1ccc(O)cc1,O,0,0,4.54,[4.54],"[Hunt et al.. J. Chem. Inf. Model, 2020, 60 (6), 2989-2997.]",carboxylic acid,water
2418,CCOc1ccc(C[NH+](CCO)CCO)cc1,O,0,0,7.6,[7.6],"[Hunt et al.. J. Chem. Inf. Model, 2020, 60 (6), 2989-2997.]",protonated amine,water
2419,O=C(O)/C=C/c1ccccc1,O,0,0,4.45,[4.45],"[Hunt et al.. J. Chem. Inf. Model, 2020, 60 (6), 2989-2997.]",carboxylic acid,water
2420,CSc1ccc([NH3+])cc1Cl,O,0,0,3.38,[3.38],"[Hunt et al.. J. Chem. Inf. Model, 2020, 60 (6), 2989-2997.]",protonated amine,water
2421,CC(C)C[C@H]([NH3+])c1ccc(F)cc1,O,0,0,9.25,[9.25],"[Hunt et al.. J. Chem. Inf. Model, 2020, 60 (6), 2989-2997.]",protonated amine,water
2422,[NH3+]CCc1ccc(O)c(O)c1,O,0,0,8.87,[8.87],"[Hunt et al.. J. Chem. Inf. Model, 2020, 60 (6), 2989-2997.]",protonated amine,water
2423,[NH3+]c1ccc(-c2ccccc2)cc1[N+](=O)[O-],O,0,0,-0.76,[-0.76],"[Hunt et al.. J. Chem. Inf. Model, 2020, 60 (6), 2989-2997.]",protonated amine,water
2424,O=P1(NS(=O)(=O)C(F)(F)F)OC2=C(c3c4c(cc(-c5ccc(F)cc5)c3O1)CCCC4)C1CCCCC1C=C2c1ccc(F)cc1,CC#N,1431711-91-9,-,6.26,"[6.22, 6.3]","[Kutt et al., Eur. J. Org. Chem., 2021, 2021 (9), 1407-1419., Paenurk et al., Chem. Sci., 2017, 8, 6964-6973.]",amine,acetonitrile
2425,CCCCC[NH+]1CCOCC1,O,0,0,7.69,[7.69],"[Hunt et al.. J. Chem. Inf. Model, 2020, 60 (6), 2989-2997.]",protonated amine,water
2426,[NH3+]c1ccc([N+](=O)[O-])cc1,O,0,0,1,[1.0],"[Hunt et al.. J. Chem. Inf. Model, 2020, 60 (6), 2989-2997.]",protonated amine,water
2427,OCC(CO)(CO)CO,O,0,0,14.1,[14.1],"[Hunt et al.. J. Chem. Inf. Model, 2020, 60 (6), 2989-2997.]",hydroxyl alcohol,water
2428,[NH3+]c1cccc2cc(Cl)ccc12,O,0,0,3.48,[3.48],"[Hunt et al.. J. Chem. Inf. Model, 2020, 60 (6), 2989-2997.]",protonated amine,water
2429,O=[N+]([O-])c1cc([N+](=O)[O-])c(Nc2c([N+](=O)[O-])cc([N+](=O)[O-])cc2[N+](=O)[O-])c([N+](=O)[O-])c1,O,0,0,4.025,"[5.42, 2.63]","[Hunt et al.. J. Chem. Inf. Model, 2020, 60 (6), 2989-2997. ,   Kutt et al., Eur. J. Org. Chem., 2021, 2021 (9), 1407-1419.]",amine,water
2430,CCCCCC[N@@H+](CC[N+]1(C)CCCCC1)c1ccccc1,O,0,0,3.13,[3.13],"[Hunt et al.. J. Chem. Inf. Model, 2020, 60 (6), 2989-2997.]",protonated amine,water
2431,COC(=O)c1ccc([NH+](C)C)cc1,O,0,0,2.52,[2.52],"[Hunt et al.. J. Chem. Inf. Model, 2020, 60 (6), 2989-2997.]",protonated amine,water
2432,CC1(C)S[C@@H]2[C@H](NC(=O)COc3ccccc3)C(=O)N2[C@H]1C(=O)O,O,0,0,2.79,[2.79],"[Hunt et al.. J. Chem. Inf. Model, 2020, 60 (6), 2989-2997.]",carboxylic acid,water
2433,CCCC(=O)O,CC#N,107-92-6,butanoic acid,22.7,[22.7],"[Eckert et al., J. Comput. Chem., 2009, 30, 799-810.]",carboxylic acid,acetonitrile
2434,CCOc1ccccc1O,O,0,0,10.11,[10.11],"[Hunt et al.. J. Chem. Inf. Model, 2020, 60 (6), 2989-2997.]",phenol,water
2435,O=C(C(O)=O)O,O,0,0,4.29,[4.29],"[Hunt et al.. J. Chem. Inf. Model, 2020, 60 (6), 2989-2997.]",carboxylic acid,water
2436,Cc1ccc(C(C#N)C#N)cc1,CS(=O)C,33534-88-2,2-(4-methylphenyl)propanedinitrile,4.85,[4.85],"[Kutt et al., Eur. J. Org. Chem., 2021, 2021 (9), 1407-1419.]",C-H acid,DMSO
2437,CN(C)P(=N[P+](N=P(N(C)C)(N(C)C)N(C)C)(N=P(N(C)C)(N(C)C)N(C)C)NC(C)(C)C)(N(C)C)N(C)C,O,-,(tert-butylamino)-tris[[tris(dimethylamino)-_5-phosphanylidene]amino]phosphanium,30,[30.0],"[Tshepelvitsh et al., Eur. J. Org. Chem., 2019, 6735-6748.]",amine,water
2438,CC[NH+](CC)CCOC(=O)c1ccc(Cl)cc1,O,0,0,8.08,[8.08],"[Hunt et al.. J. Chem. Inf. Model, 2020, 60 (6), 2989-2997.]",protonated amine,water
2439,CSc1ccc([NH3+])c(I)c1,O,0,0,2.45,[2.45],"[Hunt et al.. J. Chem. Inf. Model, 2020, 60 (6), 2989-2997.]",protonated amine,water
2440,Cc1cc(Cl)ccc1OCC(=O)O,O,0,0,3.28,[3.28],"[Hunt et al.. J. Chem. Inf. Model, 2020, 60 (6), 2989-2997.]",carboxylic acid,water
2441,Oc1c(Cl)c(Cl)c(Cl)c(Cl)c1Cl,CN(C)C=O,87-86-5,"2,3,4,5,6-pentachlorophenol",7.97,[7.97],"[Kutt et al., Eur. J. Org. Chem., 2021, 2021 (9), 1407-1419.]",phenol,DMF
2442,CC[NH+](CC)CC(=O)Nc1c(C)cccc1C,O,0,0,7.92,"[7.9, 7.94]","[Hunt et al.. J. Chem. Inf. Model, 2020, 60 (6), 2989-2997., Hunt et al.. J. Chem. Inf. Model, 2020, 60 (6), 2989-2997.]",protonated amine,water
2443,CC[NH2+]CC,C1CCOC1,-,diethylazanium,13,[13.0],"[Tshepelvitsh et al., Eur. J. Org. Chem., 2019, 6735-6748.]",protonated amine,THF
2444,C[NH2+]c1ccccc1,O,-,methyl(phenyl)azanium,4.849,"[4.85, 4.848]","[Tshepelvitsh et al., Eur. J. Org. Chem., 2019, 6735-6748. ,   Hunt et al.. J. Chem. Inf. Model, 2020, 60 (6), 2989-2997.]",protonated amine,water
2445,CC[C@@H]1CCC[NH2+]1,O,0,0,10.43,[10.43],"[Hunt et al.. J. Chem. Inf. Model, 2020, 60 (6), 2989-2997.]",protonated amine,water
2446,C[NH2+]Cc1ccccn1,O,0,0,8.82,[8.82],"[Hunt et al.. J. Chem. Inf. Model, 2020, 60 (6), 2989-2997.]",protonated amine,water
2447,CSc1ccc([C@@H](O)C[NH2+]C(C)C)cc1,O,0,0,9.06,[9.06],"[Hunt et al.. J. Chem. Inf. Model, 2020, 60 (6), 2989-2997.]",protonated amine,water
2448,CN(C(=O)c1ccccc1)c1cccc[nH+]1,O,0,0,1.44,[1.44],"[Hunt et al.. J. Chem. Inf. Model, 2020, 60 (6), 2989-2997.]",protonated amine,water
2449,O=C(O)CCCOc1ccc(Cl)cc1Cl,O,0,0,4.1,[4.1],"[Hunt et al.. J. Chem. Inf. Model, 2020, 60 (6), 2989-2997.]",carboxylic acid,water
2450,O=C(O)c1ccc(C2CCCCC2)cc1,O,0,0,4.39,[4.39],"[Hunt et al.. J. Chem. Inf. Model, 2020, 60 (6), 2989-2997.]",carboxylic acid,water
2451,C=CCc1ccc(O)c(OC)c1,O,0,0,10.19,[10.19],"[Hunt et al.. J. Chem. Inf. Model, 2020, 60 (6), 2989-2997.]",phenol,water
2452,Oc1cccnc1,O,0,0,8.72,[8.72],"[Hunt et al.. J. Chem. Inf. Model, 2020, 60 (6), 2989-2997.]",phenol,water
2453,O=[N+]([O-])c1cccc2[nH]ccc12,CC#N,4769-97-5,4-nitro-1H-indole,27.89,"[27.89, 27.89]","[Kutt et al., Eur. J. Org. Chem., 2021, 2021 (9), 1407-1419., Kutt et al., Eur. J. Org. Chem., 2021, 2021 (9), 1407-1419.]",amine,acetonitrile
2454,CCc1cccc(O)c1,O,0,0,9.9,[9.9],"[Hunt et al.. J. Chem. Inf. Model, 2020, 60 (6), 2989-2997.]",phenol,water
2455,CC(C)[NH2+]c1ccccc1[N+](=O)[O-],O,0,0,0.09,[0.09],"[Hunt et al.. J. Chem. Inf. Model, 2020, 60 (6), 2989-2997.]",protonated amine,water
2456,CC[NH2+]C[Si](C)(C)C,O,0,0,11.12,[11.12],"[Hunt et al.. J. Chem. Inf. Model, 2020, 60 (6), 2989-2997.]",protonated amine,water
2457,C[n+]1cccc2cccc(O)c21,O,0,0,6.78,[6.78],"[Hunt et al.. J. Chem. Inf. Model, 2020, 60 (6), 2989-2997.]",phenol,water
2458,Oc1cc(C(F)(F)F)cc(C(F)(F)F)c1,O,349-58-6,"3,5-bis(trifluoromethyl)phenol",8.03,[8.03],"[Kutt et al., Eur. J. Org. Chem., 2021, 2021 (9), 1407-1419.]",phenol,water
2459,N#CC(c1c(F)c(F)cc(F)c1F)c1c(F)c(F)c(F)c(F)c1F,C(CCl)Cl,42254-09-1,"2-(2,3,4,5,6-pentafluorophenyl)-2-(2,3,5,6-tetrafluorophenyl)acetonitrile",55.7,"[55.7, 55.7]","[Paenurk et al., Chem. Sci., 2017, 8, 6964-6973., Kutt et al., Eur. J. Org. Chem., 2021, 2021 (9), 1407-1419.]",C-H acid,DCE
2460,O=C(O)Cc1c[nH]c2ccccc12,O,0,0,4.75,[4.75],"[Hunt et al.. J. Chem. Inf. Model, 2020, 60 (6), 2989-2997.]",carboxylic acid,water
2461,CCO[P@@](C)(=O)OCC[NH+](C)C,O,0,0,8.14,[8.14],"[Hunt et al.. J. Chem. Inf. Model, 2020, 60 (6), 2989-2997.]",protonated amine,water
2462,CCn1cc(C(=O)O)c(=O)c2cc(F)c(N3CC[NH2+]CC3)cc21,O,0,0,6.3,[6.3],"[Hunt et al.. J. Chem. Inf. Model, 2020, 60 (6), 2989-2997.]",protonated amine,water
2463,C[NH2+]C[C@H](O)c1ccccc1,O,0,0,9.44,[9.44],"[Hunt et al.. J. Chem. Inf. Model, 2020, 60 (6), 2989-2997.]",protonated amine,water
2464,COc1cc[nH+]c(NC2CCN(C(=O)c3ccc(C#N)cc3)CC2)c1,O,0,0,7.1,[7.1],"[Hunt et al.. J. Chem. Inf. Model, 2020, 60 (6), 2989-2997.]",protonated amine,water
2465,O=C(O)Cc1ccccc1I,O,0,0,4.04,[4.04],"[Hunt et al.. J. Chem. Inf. Model, 2020, 60 (6), 2989-2997.]",carboxylic acid,water
2466,Cc1ccc(NS(=O)(=O)c2ccccc2)cc1,O,0,0,8.64,[8.64],"[Hunt et al.. J. Chem. Inf. Model, 2020, 60 (6), 2989-2997.]",amine,water
2467,CCCCCCCCC[NH3+],O,0,0,10.64,[10.64],"[Hunt et al.. J. Chem. Inf. Model, 2020, 60 (6), 2989-2997.]",protonated amine,water
2468,CN1C(C(=O)Nc2cccc[nH+]2)=C(O)c2ccccc2S1(=O)=O,O,0,0,5.3,[5.3],"[Hunt et al.. J. Chem. Inf. Model, 2020, 60 (6), 2989-2997.]",protonated amine,water
2469,O=[N+]([O-])c1cc(Br)c(O)c(Br)c1,O,0,0,3.39,[3.39],"[Hunt et al.. J. Chem. Inf. Model, 2020, 60 (6), 2989-2997.]",phenol,water
2470,O=[N+]([O-])c1cccc(O)c1,CC#N,554-84-7,3-nitrophenol,23.8,[23.8],"[Eckert et al., J. Comput. Chem., 2009, 30, 799-810.]",phenol,acetonitrile
2471,CCc1cc(C(C)C)c(C)cc1O,O,0,0,10.85,[10.85],"[Hunt et al.. J. Chem. Inf. Model, 2020, 60 (6), 2989-2997.]",phenol,water
2472,[NH3+]Cc1ccc(F)cc1,O,0,0,9.3,[9.3],"[Hunt et al.. J. Chem. Inf. Model, 2020, 60 (6), 2989-2997.]",protonated amine,water
2473,CC(C)c1cc(C(C)C)c(-c2cc3ccccc3c3c2OP(=O)(O)Oc2c(-c4c(C(C)C)cc(C(C)C)cc4C(C)C)cc4ccccc4c2-3)c(C(C)C)c1,CS(=O)C,791616-63-2,"13-hydroxy-10,16-bis[2,4,6-tri(propan-2-yl)phenyl]-12,14-dioxa-135-phosphapentacyclo[13.8.0.02,11.03,8.018,23]tricosa-1(15),2(11),3,5,7,9,16,18,20,22-decaene 13-oxide",4.22,[4.22],"[Kutt et al., Eur. J. Org. Chem., 2021, 2021 (9), 1407-1419.]",phosphoric acid,DMSO
2474,CCC[NH2+]C[C@H](O)c1ccc(O)c(O)c1,O,0,0,8.57,[8.57],"[Hunt et al.. J. Chem. Inf. Model, 2020, 60 (6), 2989-2997.]",protonated amine,water
2475,c1cnc2c(c1)ccc1ccc[nH+]c12,CC#N,-,"1,10-phenanthrolin-10-ium",13.685,"[13.68, 13.69]","[Lokov et al., Eur. J. Org. Chem., 2017, 30, 4475-4489., Tshepelvitsh et al., Eur. J. Org. Chem., 2019, 6735-6748.]",protonated amine,acetonitrile
2476,NS(=O)(=O)c1ccc(F)cc1,CC#N,402-46-0,4-fluorobenzenesulfonamide,25.175,"[24.19, 26.16]","[Eckert et al., J. Comput. Chem., 2009, 30, 799-810., Kutt et al., Eur. J. Org. Chem., 2021, 2021 (9), 1407-1419.]",amine,acetonitrile
2477,c1ccc(C[NH2+]c2ccccc2)cc1,O,0,0,4.04,[4.04],"[Hunt et al.. J. Chem. Inf. Model, 2020, 60 (6), 2989-2997.]",protonated amine,water
2478,NC1=[NH+][C@H](c2ccco2)Nc2ccccc21,O,0,0,9.13,[9.13],"[Hunt et al.. J. Chem. Inf. Model, 2020, 60 (6), 2989-2997.]",protonated amine,water
2479,Cc1ccc([N+](=O)[O-])cc1[NH3+],O,0,0,2.345,[2.345],"[Hunt et al.. J. Chem. Inf. Model, 2020, 60 (6), 2989-2997.]",protonated amine,water
2480,C[N+](C)(C)c1cccc(CCC(=O)O)c1,O,0,0,4.17,[4.17],"[Hunt et al.. J. Chem. Inf. Model, 2020, 60 (6), 2989-2997.]",carboxylic acid,water
2481,C/C=C/C(=O)O,O,0,0,4.44,[4.44],"[Hunt et al.. J. Chem. Inf. Model, 2020, 60 (6), 2989-2997.]",carboxylic acid,water