,Solute SMILES,Solvent SMILES,Solute CAS,Solute IUPAC,pKa (avg),pKa (all),Source (all),Acid type,Solvent name
2230,O=C(O)Cc1ccc(F)cc1,O,0,0,4.25,[4.25],"[Hunt et al.. J. Chem. Inf. Model, 2020, 60 (6), 2989-2997.]",carboxylic acid,water
2231,CCOC(=O)[C@@H](N)CS,O,0,0,6.53,[6.53],"[Hunt et al.. J. Chem. Inf. Model, 2020, 60 (6), 2989-2997.]",thiol,water
2232,C[C@@H](C=C(c1cccs1)c1cccs1)[N@H+]1CCCC[C@H]1C,O,0,0,7.41,[7.41],"[Hunt et al.. J. Chem. Inf. Model, 2020, 60 (6), 2989-2997.]",protonated amine,water
2233,O=C(O)CO,CC#N,79-14-1,2-hydroxyacetic acid,19.3,[19.3],"[Eckert et al., J. Comput. Chem., 2009, 30, 799-810.]",carboxylic acid,acetonitrile
2234,[NH3+]c1cc(I)cc2ccccc12,O,0,0,2.82,[2.82],"[Hunt et al.. J. Chem. Inf. Model, 2020, 60 (6), 2989-2997.]",protonated amine,water
2235,COc1ccc(C(=O)NS(=O)(=O)C(F)(F)F)cc1,CC#N,39063-05-3,4-methoxy-N-(trifluoromethylsulfonyl)benzamide,11.6,"[11.6, 11.6, 11.6]","[Eckert et al., J. Comput. Chem., 2009, 30, 799-810., Kutt et al., Eur. J. Org. Chem., 2021, 2021 (9), 1407-1419., Paenurk et al., Chem. Sci., 2017, 8, 6964-6973.]",amine,acetonitrile
2236,c1ccc(C[NH+]2CCCC2)cc1,O,0,0,9.51,[9.51],"[Hunt et al.. J. Chem. Inf. Model, 2020, 60 (6), 2989-2997.]",protonated amine,water
2237,CCCCCC[C@@H](C)[NH3+],O,0,0,10.49,[10.49],"[Hunt et al.. J. Chem. Inf. Model, 2020, 60 (6), 2989-2997.]",protonated amine,water
2238,CCC[NH+](CCCl)CCCl,O,0,0,6.68,[6.68],"[Hunt et al.. J. Chem. Inf. Model, 2020, 60 (6), 2989-2997.]",protonated amine,water
2239,N#CC1c2ccccc2-c2ccccc21,CC#N,1529-40-4,9H-fluorene-9-carbonitrile,21.26333333,"[21.36, 20.8, 21.36, 21.35, 21.35, 21.36]","[Eckert et al., J. Comput. Chem., 2009, 30, 799-810., Eckert et al., J. Comput. Chem., 2009, 30, 799-810., Paenurk et al., Chem. Sci., 2017, 8, 6964-6973., Kutt et al., Eur. J. Org. Chem., 2021, 2021 (9), 1407-1419., Kutt et al., Eur. J. Org. Chem., 2021, 2021 (9), 1407-1419., Paenurk et al., Chem. Sci., 2017, 8, 6964-6973.]",C-H acid,acetonitrile
2240,Oc1cc2ccccc2nn1,O,0,0,8.63,[8.63],"[Hunt et al.. J. Chem. Inf. Model, 2020, 60 (6), 2989-2997.]",phenol,water
2241,CSc1ccccc1[NH3+],O,0,0,3.45,[3.45],"[Hunt et al.. J. Chem. Inf. Model, 2020, 60 (6), 2989-2997.]",protonated amine,water
2242,Fc1c(F)c(F)c(C2c3ccccc3-c3ccccc32)c(F)c1F,CC#N,73482-93-6,"9-(2,3,4,5,6-pentafluorophenyl)-9H-fluorene",28.125,"[28.14, 28.11, 28.11, 28.14]","[Kutt et al., Eur. J. Org. Chem., 2021, 2021 (9), 1407-1419., Paenurk et al., Chem. Sci., 2017, 8, 6964-6973., Eckert et al., J. Comput. Chem., 2009, 30, 799-810., Kutt et al., Eur. J. Org. Chem., 2021, 2021 (9), 1407-1419.]",C-H acid,acetonitrile
2243,OC(C(F)(F)F)(C(F)(F)F)C(F)(F)Cl,O,0,0,5.3,[5.3],"[Hunt et al.. J. Chem. Inf. Model, 2020, 60 (6), 2989-2997.]",hydroxyl alcohol,water
2244,OCCF,O,0,0,14.2,[14.2],"[Hunt et al.. J. Chem. Inf. Model, 2020, 60 (6), 2989-2997.]",hydroxyl alcohol,water
2245,[NH3+]c1cccc(OC(F)(F)C(F)(F)F)c1,O,0,0,3.24,[3.24],"[Hunt et al.. J. Chem. Inf. Model, 2020, 60 (6), 2989-2997.]",protonated amine,water
2246,C[C@H]([NH2+][C@H]1CCc2ccccc21)c1ccccc1,O,0,0,6.87,[6.87],"[Hunt et al.. J. Chem. Inf. Model, 2020, 60 (6), 2989-2997.]",protonated amine,water
2247,CN(C)C(=N)[NH+](C)C,C1CCOC1,-,"(N,N-dimethylcarbamimidoyl)-dimethylazanium",15.5,"[15.5, 15.5]","[Kutt et al., Tetrahedron Lett., 2018., Tshepelvitsh et al., Eur. J. Org. Chem., 2019, 6735-6748.]",protonated amine,THF
2248,CCC[NH2+]CCC,O,0,0,11,"[11.0, 11.0]","[Hunt et al.. J. Chem. Inf. Model, 2020, 60 (6), 2989-2997. ,   Tshepelvitsh et al., Eur. J. Org. Chem., 2019, 6735-6748.]",protonated amine,water
2249,C[C@H](CCC(C(=O)O)(c1ccccc1)c1ccccc1)[NH+](C)C,O,0,0,10.88,[10.88],"[Hunt et al.. J. Chem. Inf. Model, 2020, 60 (6), 2989-2997.]",protonated amine,water
2250,O=[N+]([O-])O,C(CCl)Cl,7697-37-2,nitric acid,43.6,[43.6],"[Paenurk et al., Chem. Sci., 2017, 8, 6964-6973.]",inorganic,DCE
2251,CN1CCN(c2c(F)cc3c(=O)c(C(=O)O)cn(CCF)c3c2F)CC1,O,0,0,5.6,[5.6],"[Hunt et al.. J. Chem. Inf. Model, 2020, 60 (6), 2989-2997.]",carboxylic acid,water
2252,N#CC(c1c(F)c(F)c(F)c(F)c1F)c1c(F)c(F)c2c(F)c(F)c(F)c(F)c2c1F,C(CCl)Cl,64934-68-5,"2-(1,3,4,5,6,7,8-heptafluoronaphthalen-2-yl)-2-(2,3,4,5,6-pentafluorophenyl)acetonitrile",54.4,"[54.4, 54.4]","[Kutt et al., Eur. J. Org. Chem., 2021, 2021 (9), 1407-1419., Paenurk et al., Chem. Sci., 2017, 8, 6964-6973.]",C-H acid,DCE
2253,CC1(C)CCCC(C)(C)[NH2+]1,O,0,0,11.1,[11.1],"[Hunt et al.. J. Chem. Inf. Model, 2020, 60 (6), 2989-2997.]",protonated amine,water
2254,NCC[NH3+],CC#N,-,2-aminoethylazanium,18.46,[18.46],"[Tshepelvitsh et al., Eur. J. Org. Chem., 2019, 6735-6748.]",protonated amine,acetonitrile
2255,Oc1cc(Cl)c(Cl)c(Cl)c1Cl,O,0,0,6.35,[6.35],"[Hunt et al.. J. Chem. Inf. Model, 2020, 60 (6), 2989-2997.]",phenol,water
2256,CCOP(=O)(OCC)OCC[NH+](C)C,O,0,0,8,[8.0],"[Hunt et al.. J. Chem. Inf. Model, 2020, 60 (6), 2989-2997.]",protonated amine,water
2257,Cc1cc(C)c(O)c(C)c1,O,0,0,10.88,[10.88],"[Hunt et al.. J. Chem. Inf. Model, 2020, 60 (6), 2989-2997.]",phenol,water
2258,O=C(O)[C@H](O)c1ccccc1,O,0,0,3.19,[3.19],"[Hunt et al.. J. Chem. Inf. Model, 2020, 60 (6), 2989-2997.]",carboxylic acid,water
2259,Cc1cc(C)c(C[NH+](CCO)CCO)c(C)c1,O,0,0,7.45,[7.45],"[Hunt et al.. J. Chem. Inf. Model, 2020, 60 (6), 2989-2997.]",protonated amine,water
2260,C1CCC([C@@H]2CCC[NH2+]2)CC1,O,0,0,10.76,[10.76],"[Hunt et al.. J. Chem. Inf. Model, 2020, 60 (6), 2989-2997.]",protonated amine,water
2261,C[C@H]1C[C@@H](C)C[NH+](C)C1,O,0,0,10,[10.0],"[Hunt et al.. J. Chem. Inf. Model, 2020, 60 (6), 2989-2997.]",protonated amine,water
2262,CCCCCCCCCC[NH3+],O,0,0,10.64,[10.64],"[Hunt et al.. J. Chem. Inf. Model, 2020, 60 (6), 2989-2997.]",protonated amine,water
2263,CCN(CC)CC[NH+](CC)CC,O,0,0,9.55,[9.55],"[Hunt et al.. J. Chem. Inf. Model, 2020, 60 (6), 2989-2997.]",protonated amine,water
2264,Oc1cccc(O)c1,O,0,0,9.15,[9.15],"[Hunt et al.. J. Chem. Inf. Model, 2020, 60 (6), 2989-2997.]",phenol,water
2265,O=C(O)[C@H]1CCCNC1,O,0,0,3.35,[3.35],"[Hunt et al.. J. Chem. Inf. Model, 2020, 60 (6), 2989-2997.]",carboxylic acid,water
2266,O=S(=O)(O)c1cccc2ccccc12,CC#N,85-47-2,naphthalene-1-sulfonic acid,7.894,"[7.89, 7.89, 7.9, 7.9, 7.89]","[Eckert et al., J. Comput. Chem., 2009, 30, 799-810.,  Kutt et al., J. Org. Chem., 2011, 76, 391-395., Kutt et al., Eur. J. Org. Chem., 2021, 2021 (9), 1407-1419., Kutt et al., Eur. J. Org. Chem., 2021, 2021 (9), 1407-1419., Paenurk et al., Chem. Sci., 2017, 8, 6964-6973.]",sulfonic acid,acetonitrile
2267,CC[NH+](CC)CCC(c1ccccc1)c1ccccc1,O,0,0,10.1,[10.1],"[Hunt et al.. J. Chem. Inf. Model, 2020, 60 (6), 2989-2997.]",protonated amine,water
2268,Cc1cc2cccc(O)c2nc1C,O,0,0,10.2,[10.2],"[Hunt et al.. J. Chem. Inf. Model, 2020, 60 (6), 2989-2997.]",phenol,water
2269,C[C@H](CC(C#N)(c1ccccc1)c1ccccc1)[NH+]1CCCCC1,O,0,0,7.68,[7.68],"[Hunt et al.. J. Chem. Inf. Model, 2020, 60 (6), 2989-2997.]",protonated amine,water
2270,CCC[NH+](CCC)[C@@H]1CCc2c(O)cccc2C1,O,0,0,10.05,"[10.85, 9.25]","[Hunt et al.. J. Chem. Inf. Model, 2020, 60 (6), 2989-2997. ,   Hunt et al.. J. Chem. Inf. Model, 2020, 60 (6), 2989-2997.]",protonated amine,water
2271,C=CC[NH+](C)CC=C,O,0,0,8.79,[8.79],"[Hunt et al.. J. Chem. Inf. Model, 2020, 60 (6), 2989-2997.]",protonated amine,water
2272,CC(C)(C)c1ccc(O)cc1,CC#N,98-54-4,4-tert-butylphenol,27.48,[27.48],"[Eckert et al., J. Comput. Chem., 2009, 30, 799-810.]",phenol,acetonitrile
2273,I,C(CCl)Cl,10034-85-2,iodane,37.7,"[37.7, 37.7, 37.7]","[Kutt et al., Tetrahedron Lett., 2018., Kutt et al., Eur. J. Org. Chem., 2021, 2021 (9), 1407-1419., Paenurk et al., Chem. Sci., 2017, 8, 6964-6973.]",inorganic,DCE
2274,Oc1cccc2ncccc12,O,0,0,8.56,[8.56],"[Hunt et al.. J. Chem. Inf. Model, 2020, 60 (6), 2989-2997.]",phenol,water
2275,CCCC(=O)O,O,0,0,4.82,[4.82],"[Hunt et al.. J. Chem. Inf. Model, 2020, 60 (6), 2989-2997.]",carboxylic acid,water
2276,O=[N+]([O-])C1=CN=C[NH2+]1,CC#N,,5-nitro-1H-imidazol-3-ium,6.34,[6.34],"[Lokov et al., Eur. J. Org. Chem., 2017, 30, 4475-4489.]",protonated amine,acetonitrile
2277,Oc1ccccc1F,O,0,0,8.81,[8.81],"[Hunt et al.. J. Chem. Inf. Model, 2020, 60 (6), 2989-2997.]",phenol,water
2278,O=C(O)c1ccc(C2CCCC2)cc1,O,0,0,4.21,[4.21],"[Hunt et al.. J. Chem. Inf. Model, 2020, 60 (6), 2989-2997.]",carboxylic acid,water
2279,Cc1ccc(S(=O)(=O)N2CC[NH2+]CC2)cc1,O,0,0,7.4,[7.4],"[Hunt et al.. J. Chem. Inf. Model, 2020, 60 (6), 2989-2997.]",protonated amine,water
2280,CSc1ccc([NH3+])c(Cl)c1,O,0,0,2.56,[2.56],"[Hunt et al.. J. Chem. Inf. Model, 2020, 60 (6), 2989-2997.]",protonated amine,water
2281,C[C@H](CN1c2ccccc2Sc2ccccc21)[NH+](C)C,O,0,0,9.1,[9.1],"[Hunt et al.. J. Chem. Inf. Model, 2020, 60 (6), 2989-2997.]",protonated amine,water
2282,O=C(NCC12CC3CC(CC(C3)C1)C2)c1cc(C[NH+]2C[C@@H]3CNC[C@H](C2)O3)ccc1Cl,O,0,0,10,[10.0],"[Hunt et al.. J. Chem. Inf. Model, 2020, 60 (6), 2989-2997.]",protonated amine,water
2283,O=C(O)CCC(=O)c1ccc2ccccc2c1,O,0,0,4.96,[4.96],"[Hunt et al.. J. Chem. Inf. Model, 2020, 60 (6), 2989-2997.]",carboxylic acid,water
2284,O=S(=O)(O)c1ccccc1,CC#N,98-11-3,benzenesulfonic acid,8.2,"[8.2, 8.2]","[Kutt et al., Eur. J. Org. Chem., 2021, 2021 (9), 1407-1419., Kutt et al., Eur. J. Org. Chem., 2021, 2021 (9), 1407-1419.]",sulfonic acid,acetonitrile
2285,OCC(Cl)Cl,O,0,0,12.89,[12.89],"[Hunt et al.. J. Chem. Inf. Model, 2020, 60 (6), 2989-2997.]",hydroxyl alcohol,water
2286,C[NH2+]CCc1ccc(O)cc1,O,0,0,9.36,[9.36],"[Hunt et al.. J. Chem. Inf. Model, 2020, 60 (6), 2989-2997.]",protonated amine,water
2287,CCOC(=O)C(C#N)c1c(F)c(F)c(F)c(F)c1F,CS(=O)C,2340-87-6,"ethyl 2-cyano-2-(2,3,4,5,6-pentafluorophenyl)acetate",4.9,"[4.7, 5.1]","[Paenurk et al., Chem. Sci., 2017, 8, 6964-6973., Kutt et al., Eur. J. Org. Chem., 2021, 2021 (9), 1407-1419.]",C-H acid,DMSO
2288,Cl,CN(C)C=O,7647-01-0,chlorane,2.36,[2.36],"[Kutt et al., Eur. J. Org. Chem., 2021, 2021 (9), 1407-1419.]",inorganic,DMF
2289,CC[NH2+]c1ccccc1,O,0,0,5.12,[5.12],"[Hunt et al.. J. Chem. Inf. Model, 2020, 60 (6), 2989-2997.]",protonated amine,water
2290,OCCOc1ccccc1,O,0,0,14.6,[14.6],"[Hunt et al.. J. Chem. Inf. Model, 2020, 60 (6), 2989-2997.]",hydroxyl alcohol,water
2291,CNc1cccc(C)[nH+]1,O,0,0,8.84,[8.84],"[Hunt et al.. J. Chem. Inf. Model, 2020, 60 (6), 2989-2997.]",protonated amine,water
2292,O=S1(=O)NS(=O)(=O)c2c(-c3cc(C(F)(F)F)cc(C(F)(F)F)c3)cc3ccccc3c2C2=C3C=CC=CC3CC(c3cc(C(F)(F)F)cc(C(F)(F)F)c3)=C21,CC#N,1242421-77-7,,8.4,[8.4],"[Paenurk et al., Chem. Sci., 2017, 8, 6964-6973.]",amine,acetonitrile
2293,CC[NH+](CC)Cc1ccc2cccnc2c1O,O,0,0,11.3,[11.3],"[Hunt et al.. J. Chem. Inf. Model, 2020, 60 (6), 2989-2997.]",protonated amine,water
2294,Oc1ccnc2cccnc12,O,0,0,10.03,[10.03],"[Hunt et al.. J. Chem. Inf. Model, 2020, 60 (6), 2989-2997.]",phenol,water
2295,Cc1ccc(S(=O)(=O)NC(=O)NN2CCCCCC2)cc1,O,0,0,5.8,[5.8],"[Hunt et al.. J. Chem. Inf. Model, 2020, 60 (6), 2989-2997.]",amine,water
2296,CN1CC[NH+](C)CC1,CC#N,-,"1,4-dimethylpiperazin-1-ium",17.38,[17.38],"[Tshepelvitsh et al., Eur. J. Org. Chem., 2019, 6735-6748.]",protonated amine,acetonitrile
2297,CCCC[NH2+]C,O,0,0,10.9,[10.9],"[Hunt et al.. J. Chem. Inf. Model, 2020, 60 (6), 2989-2997.]",protonated amine,water
2298,Oc1c(F)c(F)c(F)c(F)c1F,CC#N,771-61-9,"2,3,4,5,6-pentafluorophenol",20.105,"[20.11, 20.1, 20.1, 20.11]","[Eckert et al., J. Comput. Chem., 2009, 30, 799-810., Kutt et al., Eur. J. Org. Chem., 2021, 2021 (9), 1407-1419., Kutt et al., Eur. J. Org. Chem., 2021, 2021 (9), 1407-1419., Paenurk et al., Chem. Sci., 2017, 8, 6964-6973.]",phenol,acetonitrile
2299,[NH3+]C1CCCC1,O,0,0,10.65,[10.65],"[Hunt et al.. J. Chem. Inf. Model, 2020, 60 (6), 2989-2997.]",protonated amine,water
2300,N#Cc1cccc(O)c1,O,0,0,8.61,[8.61],"[Hunt et al.. J. Chem. Inf. Model, 2020, 60 (6), 2989-2997.]",phenol,water
2301,Oc1c(Cl)cc(Cl)cc1Cc1cc(Cl)cc(Cl)c1O,O,0,0,10.65,[10.65],"[Hunt et al.. J. Chem. Inf. Model, 2020, 60 (6), 2989-2997.]",phenol,water
2302,O=S(=O)(NS(=O)(=O)C(F)(F)F)C(F)(F)F,C(CCl)Cl,82113-65-3,"1,1,1-trifluoro-N-(trifluoromethylsulfonyl)methanesulfonamide",33,[33.0],"[Paenurk et al., Chem. Sci., 2017, 8, 6964-6973.]",amine,DCE
2303,N#CC(C#N)c1ccc([N+](=O)[O-])cc1,CC#N,7077-65-8,2-(4-nitrophenyl)propanedinitrile,11.61,"[11.61, 11.61, 11.61, 11.61]","[Eckert et al., J. Comput. Chem., 2009, 30, 799-810., Kutt et al., Eur. J. Org. Chem., 2021, 2021 (9), 1407-1419., Kutt et al., Eur. J. Org. Chem., 2021, 2021 (9), 1407-1419., Paenurk et al., Chem. Sci., 2017, 8, 6964-6973.]",C-H acid,acetonitrile
2304,COc1ccc([C@@H]2CCC[N@H+]2C)cc1,O,0,0,8.9,[8.9],"[Hunt et al.. J. Chem. Inf. Model, 2020, 60 (6), 2989-2997.]",protonated amine,water
2305,C[N+](C)(C)c1cccc([NH3+])c1,O,0,0,2.22,[2.22],"[Hunt et al.. J. Chem. Inf. Model, 2020, 60 (6), 2989-2997.]",protonated amine,water
2306,CSc1cc(=[NH2+])nc(N)n1C,O,0,0,11.9,[11.9],"[Hunt et al.. J. Chem. Inf. Model, 2020, 60 (6), 2989-2997.]",protonated amine,water
2307,O=C(NS(=O)(=O)c1ccc(F)cc1)N1CCC(N2CCC(Oc3ccc(Cl)c(Cl)c3)CC2)CC1,O,0,0,3,[3.0],"[Hunt et al.. J. Chem. Inf. Model, 2020, 60 (6), 2989-2997.]",amine,water
2308,OCC[NH+](CCO)Cc1cccc(Br)c1,O,0,0,8.98,[8.98],"[Hunt et al.. J. Chem. Inf. Model, 2020, 60 (6), 2989-2997.]",protonated amine,water
2309,CC(C)(C)c1cc(NC(=O)NCc2ccccc2Sc2ccc3nnc(-c4ccccc4SCCO)n3c2)n(-c2ccc(O)c(Cl)c2)n1,O,0,0,7.17,[7.17],"[Hunt et al.. J. Chem. Inf. Model, 2020, 60 (6), 2989-2997.]",phenol,water
2310,O=Cc1ncccc1O,O,0,0,6.95,[6.95],"[Hunt et al.. J. Chem. Inf. Model, 2020, 60 (6), 2989-2997.]",phenol,water
2311,CCCCCC[NH2+]c1ccccc1,O,0,0,5.42,[5.42],"[Hunt et al.. J. Chem. Inf. Model, 2020, 60 (6), 2989-2997.]",protonated amine,water
2312,Oc1ccc2c(c1)CCCC2,O,0,0,10.48,[10.48],"[Hunt et al.. J. Chem. Inf. Model, 2020, 60 (6), 2989-2997.]",phenol,water
2313,O=C(O)c1cccc2c1C(=O)c1ccccc1C2=O,O,0,0,3.37,[3.37],"[Hunt et al.. J. Chem. Inf. Model, 2020, 60 (6), 2989-2997.]",carboxylic acid,water
2314,CCC[NH+](CCC)CCC,CS(=O)C,-,tripropylazanium,10.7,[10.7],"[Tshepelvitsh et al., Eur. J. Org. Chem., 2019, 6735-6748.]",protonated amine,DMSO
2315,OCC[NH+](CCO)Cc1ccccc1,O,0,0,7.68,[7.68],"[Hunt et al.. J. Chem. Inf. Model, 2020, 60 (6), 2989-2997.]",protonated amine,water
2316,O=[N+]([O-])c1cccc(S)c1,O,0,0,5.24,[5.24],"[Hunt et al.. J. Chem. Inf. Model, 2020, 60 (6), 2989-2997.]",thiol,water
2317,CC(=O)c1ccc(Sc2ccc([NH3+])cc2)cc1,O,0,0,3.31,[3.31],"[Hunt et al.. J. Chem. Inf. Model, 2020, 60 (6), 2989-2997.]",protonated amine,water
2318,CN1CCN(c2ccc(-c3cc(NCC[NH+](C)C)c4ccccc4n3)cc2)CC1,O,0,0,8.94,[8.94],"[Hunt et al.. J. Chem. Inf. Model, 2020, 60 (6), 2989-2997.]",protonated amine,water
2319,Cc1ccc(-c2cnc(O)nc2)cc1,O,0,0,8.74,[8.74],"[Hunt et al.. J. Chem. Inf. Model, 2020, 60 (6), 2989-2997.]",hydroxyl alcohol,water
2320,COc1cccc(C(=[NH2+])c2ccccc2)c1,O,0,0,6.59,[6.59],"[Hunt et al.. J. Chem. Inf. Model, 2020, 60 (6), 2989-2997.]",protonated amine,water
2321,C[NH+](C)CCN(Cc1ccccc1)c1cccc[nH+]1,O,0,0,3.92,[3.92],"[Hunt et al.. J. Chem. Inf. Model, 2020, 60 (6), 2989-2997.]",protonated amine,water
2322,[NH3+]Cc1ccc(Br)cc1,O,0,0,9.13,[9.13],"[Hunt et al.. J. Chem. Inf. Model, 2020, 60 (6), 2989-2997.]",protonated amine,water
2323,C[C@@H](O)C(F)(F)F,O,0,0,11.8,[11.8],"[Hunt et al.. J. Chem. Inf. Model, 2020, 60 (6), 2989-2997.]",hydroxyl alcohol,water
2324,C=CC[NH+](C)C,O,0,0,8.64,[8.64],"[Hunt et al.. J. Chem. Inf. Model, 2020, 60 (6), 2989-2997.]",protonated amine,water
2325,c1cnc2c(c1)ccc1ccc[nH+]c12,O,-,"1,10-phenanthrolin-10-ium",5.12,"[5.12, 5.12]","[Lokov et al., Eur. J. Org. Chem., 2017, 30, 4475-4489., Tshepelvitsh et al., Eur. J. Org. Chem., 2019, 6735-6748.]",protonated amine,water
2326,O=C(O)c1c(Cl)cccc1Cl,CC#N,50-30-6,"2,6-dichlorobenzoic acid",17.6,[17.6],"[Eckert et al., J. Comput. Chem., 2009, 30, 799-810.]",carboxylic acid,acetonitrile
2327,NS(=O)(=O)c1ccc(F)cc1,O,402-46-0,4-fluorobenzenesulfonamide,10.02,[10.02],"[Kutt et al., Eur. J. Org. Chem., 2021, 2021 (9), 1407-1419.]",amine,water
2328,Oc1c(Cl)cc(Cl)c(Cl)c1Cc1c(O)c(Cl)cc(Cl)c1Cl,O,0,0,10.1,[10.1],"[Hunt et al.. J. Chem. Inf. Model, 2020, 60 (6), 2989-2997.]",phenol,water
2329,C[NH2+]C(C)(C)Cc1ccccc1,O,0,0,10.37,[10.37],"[Hunt et al.. J. Chem. Inf. Model, 2020, 60 (6), 2989-2997.]",protonated amine,water
2330,[NH3+]C[C@H](O)c1ccc(Cl)c(Cl)c1,O,0,0,8.78,[8.78],"[Hunt et al.. J. Chem. Inf. Model, 2020, 60 (6), 2989-2997.]",protonated amine,water
2331,c1cc[nH+]nc1,O,-,pyridazin-1-ium,2.33,"[2.33, 2.33]","[Lokov et al., Eur. J. Org. Chem., 2017, 30, 4475-4489., Tshepelvitsh et al., Eur. J. Org. Chem., 2019, 6735-6748.]",protonated amine,water
2332,[NH3+][C@@H]1C[C@@H]2CC[C@H]1C2,O,0,0,10.5,[10.5],"[Hunt et al.. J. Chem. Inf. Model, 2020, 60 (6), 2989-2997.]",protonated amine,water
2333,CC[N@@H+]1C[C@@H](C)C[C@@H](O)[C@@H]1[C@H](C)c1ccc2c(c1C)C[C@@H]1[C@H]2CC=C2C[C@H](O)CC[C@@]21C,O,0,0,7.4,[7.4],"[Hunt et al.. J. Chem. Inf. Model, 2020, 60 (6), 2989-2997.]",protonated amine,water
2334,O=C([O-])[C@H]1CCC[NH2+]C1,O,0,0,10.64,[10.64],"[Hunt et al.. J. Chem. Inf. Model, 2020, 60 (6), 2989-2997.]",protonated amine,water
2335,CC(N[C@H](C(O)=O)CS)=O,O,0,0,9.52,[9.52],"[Hunt et al.. J. Chem. Inf. Model, 2020, 60 (6), 2989-2997.]",carboxylic acid,water
2336,C[NH2+][C@@H]1CCC[C@H]1O,O,0,0,10.06,[10.06],"[Hunt et al.. J. Chem. Inf. Model, 2020, 60 (6), 2989-2997.]",protonated amine,water
2337,C=C1CCC[N@H+](C)C1,O,0,0,9.31,[9.31],"[Hunt et al.. J. Chem. Inf. Model, 2020, 60 (6), 2989-2997.]",protonated amine,water
2338,[NH3+]c1ccc([N+](=O)[O-])cc1Cl,CC#N,-,(2-chloro-4-nitrophenyl)azanium,3.66,[3.66],"[Lokov et al., Eur. J. Org. Chem., 2017, 30, 4475-4489.]",protonated amine,acetonitrile
2339,CC(C)Oc1cccc(C(=O)O)c1,O,0,0,4.15,[4.15],"[Hunt et al.. J. Chem. Inf. Model, 2020, 60 (6), 2989-2997.]",carboxylic acid,water
2340,CC(C)(C[NH3+])c1ccccc1,O,0,0,10.03,[10.03],"[Hunt et al.. J. Chem. Inf. Model, 2020, 60 (6), 2989-2997.]",protonated amine,water
2341,O=[N+]([O-])c1cc([N+](=O)[O-])c(O)c([N+](=O)[O-])c1,C(CCl)Cl,88-89-1,"2,4,6-trinitrophenol",44.86666667,"[44.6, 45.0, 45.0]","[Kutt et al., Tetrahedron Lett., 2018., Kutt et al., Eur. J. Org. Chem., 2021, 2021 (9), 1407-1419., Paenurk et al., Chem. Sci., 2017, 8, 6964-6973.]",phenol,DCE
2342,[NH3+]c1cc(Cl)cc(Cl)c1,O,0,0,2.371,[2.371],"[Hunt et al.. J. Chem. Inf. Model, 2020, 60 (6), 2989-2997.]",protonated amine,water
2343,COc1ccc([C@@H](O)C[NH3+])cc1OC,O,0,0,9.18,[9.18],"[Hunt et al.. J. Chem. Inf. Model, 2020, 60 (6), 2989-2997.]",protonated amine,water
2344,N#CC(c1c(F)c(F)nc(F)c1F)c1c(F)c(F)nc(F)c1F,CC#N,64934-72-1,"2,2-bis(2,3,5,6-tetrafluoropyridin-4-yl)acetonitrile",13.46666667,"[13.47, 13.47, 13.46]","[Paenurk et al., Chem. Sci., 2017, 8, 6964-6973., Kutt et al., Eur. J. Org. Chem., 2021, 2021 (9), 1407-1419., Paenurk et al., Chem. Sci., 2017, 8, 6964-6973.]",C-H acid,acetonitrile
2345,Cc1cccc(C[NH+](CCO)CCO)c1,O,0,0,7,[7.0],"[Hunt et al.. J. Chem. Inf. Model, 2020, 60 (6), 2989-2997.]",protonated amine,water
2346,CCC[C@H](C)C(=O)O,O,0,0,4.782,[4.782],"[Hunt et al.. J. Chem. Inf. Model, 2020, 60 (6), 2989-2997.]",carboxylic acid,water
2347,C=C1CC[N@H+](C)[C@@H](C)C1,O,0,0,9.25,[9.25],"[Hunt et al.. J. Chem. Inf. Model, 2020, 60 (6), 2989-2997.]",protonated amine,water
2348,CCCC[NH+](CCCC)CCCC,O,0,0,10.41,"[9.93, 10.89]","[Hunt et al.. J. Chem. Inf. Model, 2020, 60 (6), 2989-2997. ,   Tshepelvitsh et al., Eur. J. Org. Chem., 2019, 6735-6748.]",protonated amine,water
2349,c1ccc2nc[nH+]cc2c1,O,,quinazolin-3-ium,1.95,[1.95],"[Lokov et al., Eur. J. Org. Chem., 2017, 30, 4475-4489.]",protonated amine,water
2350,[NH3+]c1ccc(SC(F)(F)F)cc1,O,0,0,2.78,[2.78],"[Hunt et al.. J. Chem. Inf. Model, 2020, 60 (6), 2989-2997.]",protonated amine,water
2351,COC(=O)c1cc[nH+]c(N)c1,O,0,0,5.21,[5.21],"[Hunt et al.. J. Chem. Inf. Model, 2020, 60 (6), 2989-2997.]",protonated amine,water
2352,O=[N+]([O-])c1cc(Cl)c(O)c([N+](=O)[O-])c1,CC#N,946-31-6,"2-chloro-4,6-dinitrophenol",14.23,"[14.23, 14.23]","[Kutt et al., Eur. J. Org. Chem., 2021, 2021 (9), 1407-1419., Kutt et al., Eur. J. Org. Chem., 2021, 2021 (9), 1407-1419.]",phenol,acetonitrile