,Solute SMILES,Solvent SMILES,Solute CAS,Solute IUPAC,pKa (avg),pKa (all),Source (all),Acid type,Solvent name
380,N#Cc1c(O)c(C#N)c(C#N)c(C#N)c1C#N,C(CCl)Cl,42448-55-5,"6-hydroxybenzene-1,2,3,4,5-pentacarbonitrile",37.5,[37.5],"[Paenurk et al., Chem. Sci., 2017, 8, 6964-6973.]",phenol,DCE
381,CO/N=C(\C(=O)N[C@@H]1C(=O)N2C(C(=O)O)=C(COC(C)=O)CS[C@H]12)c1csc(N)n1,O,0,0,3.75,[3.75],"[Hunt et al.. J. Chem. Inf. Model, 2020, 60 (6), 2989-2997.]",carboxylic acid,water
382,COC(=O)c1ccccc1[NH+](C)C,O,0,0,3.78,[3.78],"[Hunt et al.. J. Chem. Inf. Model, 2020, 60 (6), 2989-2997.]",protonated amine,water
383,c1cc[nH+]cc1,CC#N,16969-45-2,pyridin-1-ium,12.53,"[12.53, 12.53]","[Lokov et al., Eur. J. Org. Chem., 2017, 30, 4475-4489., Tshepelvitsh et al., Eur. J. Org. Chem., 2019, 6735-6748.]",protonated amine,acetonitrile
384,O=C(O)CP(=O)(c1ccccc1)c1ccccc1,O,0,0,3.62,[3.62],"[Hunt et al.. J. Chem. Inf. Model, 2020, 60 (6), 2989-2997.]",carboxylic acid,water
385,CCOC(=O)N1CC[NH2+]CC1,O,0,0,8.2,[8.2],"[Hunt et al.. J. Chem. Inf. Model, 2020, 60 (6), 2989-2997.]",protonated amine,water
386,Cc1onc(-c2c(F)cccc2Cl)c1C(=O)N[C@@H]1C(=O)N2[C@@H](C(=O)O)C(C)(C)S[C@H]12,O,0,0,2.46,[2.46],"[Hunt et al.. J. Chem. Inf. Model, 2020, 60 (6), 2989-2997.]",carboxylic acid,water
387,Oc1c(Cl)c(Cl)cc(Cl)c1Cl,O,0,0,5.14,[5.14],"[Hunt et al.. J. Chem. Inf. Model, 2020, 60 (6), 2989-2997.]",phenol,water
388,O=[N+]([O-])c1ccc(Nc2ccc([N+](=O)[O-])cc2)cc1,CC#N,1821-27-8,4-nitro-N-(4-nitrophenyl)aniline,26.18,[26.18],"[Kutt et al., Eur. J. Org. Chem., 2021, 2021 (9), 1407-1419.]",amine,acetonitrile
389,N#CCC(=O)O,O,0,0,2.45,[2.45],"[Hunt et al.. J. Chem. Inf. Model, 2020, 60 (6), 2989-2997.]",carboxylic acid,water
390,Cc1nc(C)c2cccc(O)c2n1,O,0,0,9.41,[9.41],"[Hunt et al.. J. Chem. Inf. Model, 2020, 60 (6), 2989-2997.]",phenol,water
391,CCn1nc(C(=O)O)c(=O)c2cc3c(cc21)OCO3,O,0,0,4.36,[4.36],"[Hunt et al.. J. Chem. Inf. Model, 2020, 60 (6), 2989-2997.]",carboxylic acid,water
392,COc1cccc(S(N)(=O)=O)c1,CC#N,58734-57-9,3-methoxybenzenesulfonamide,24.48,[24.48],"[Eckert et al., J. Comput. Chem., 2009, 30, 799-810.]",amine,acetonitrile
393,C[C@@H]([NH3+])Cc1ccc(Cl)cc1,O,0,0,9.9,[9.9],"[Hunt et al.. J. Chem. Inf. Model, 2020, 60 (6), 2989-2997.]",protonated amine,water
394,O=C(NCC12CC3CC(CC(C3)C1)C2)c1cc(-n2ncc(=O)[nH]c2=O)ccc1Cl,O,0,0,6.2,[6.2],"[Hunt et al.. J. Chem. Inf. Model, 2020, 60 (6), 2989-2997.]",amine,water
395,Cc1ccc([NH3+])c(C)c1,O,0,0,4.89,[4.89],"[Hunt et al.. J. Chem. Inf. Model, 2020, 60 (6), 2989-2997.]",protonated amine,water
396,NS(=O)(=O)c1c(F)c(F)c(F)c(F)c1F,CC#N,778-36-9,"2,3,4,5,6-pentafluorobenzenesulfonamide",22.27,[22.27],"[Kutt et al., Eur. J. Org. Chem., 2021, 2021 (9), 1407-1419.]",amine,acetonitrile
397,O=C(O)c1ccc(O)cc1,CC#N,99-96-7,4-hydroxybenzoic acid,20.8,[20.8],"[Eckert et al., J. Comput. Chem., 2009, 30, 799-810.]",carboxylic acid,acetonitrile
398,[NH3+]c1cccc(Cl)c1Cl,O,0,0,1.761,[1.761],"[Hunt et al.. J. Chem. Inf. Model, 2020, 60 (6), 2989-2997.]",protonated amine,water
399,CSc1cccc([NH3+])c1,O,0,0,4,[4.0],"[Hunt et al.. J. Chem. Inf. Model, 2020, 60 (6), 2989-2997.]",protonated amine,water
400,Cc1cccc(C[NH3+])c1,O,0,0,9.45,[9.45],"[Hunt et al.. J. Chem. Inf. Model, 2020, 60 (6), 2989-2997.]",protonated amine,water
401,COC(=O)C[C@@H](C(=O)O)c1ccc([N+](=O)[O-])cc1,O,0,0,3.69,[3.69],"[Hunt et al.. J. Chem. Inf. Model, 2020, 60 (6), 2989-2997.]",carboxylic acid,water
402,OCCS,O,0,0,9.72,[9.72],"[Hunt et al.. J. Chem. Inf. Model, 2020, 60 (6), 2989-2997.]",thiol,water
403,[NH3+]c1ccc2c3c(cccc13)CC2,O,0,0,4.58,[4.58],"[Hunt et al.. J. Chem. Inf. Model, 2020, 60 (6), 2989-2997.]",protonated amine,water
404,Cc1nn(-c2ccc(F)cc2)c(NS(=O)(=O)c2ccc(C(F)(F)F)cc2)c1C(=O)N[C@@H](C)C(C)(C)C,O,0,0,3.4,[3.4],"[Hunt et al.. J. Chem. Inf. Model, 2020, 60 (6), 2989-2997.]",amine,water
405,O=C(O)C(F)F,O,0,0,1.33,[1.33],"[Hunt et al.. J. Chem. Inf. Model, 2020, 60 (6), 2989-2997.]",carboxylic acid,water
406,CC(C)(C)c1cccc(C(=O)O)c1,O,0,0,4.204,[4.204],"[Hunt et al.. J. Chem. Inf. Model, 2020, 60 (6), 2989-2997.]",carboxylic acid,water
407,CC(C)(C(=O)O)C(=O)O,O,0,0,3.15,[3.15],"[Hunt et al.. J. Chem. Inf. Model, 2020, 60 (6), 2989-2997.]",carboxylic acid,water
408,O=C(NS(=O)(=O)c1ccccc1)N1CCC([NH+]2CCC(Oc3ccc(Cl)c(Cl)c3)CC2)CC1,O,0,0,3.3,[3.3],"[Hunt et al.. J. Chem. Inf. Model, 2020, 60 (6), 2989-2997.]",protonated amine,water
409,[NH3+]c1ccc([N+](=O)[O-])cc1,CC#N,,(4-nitrophenyl)azanium,6.22,[6.22],"[Lokov et al., Eur. J. Org. Chem., 2017, 30, 4475-4489.]",protonated amine,acetonitrile
410,Oc1ccccc1-c1ccc(Br)cc1,O,0,0,10.96,[10.96],"[Hunt et al.. J. Chem. Inf. Model, 2020, 60 (6), 2989-2997.]",phenol,water
411,CCC[NH2+]Cc1ccccc1,O,0,0,9.6,[9.6],"[Hunt et al.. J. Chem. Inf. Model, 2020, 60 (6), 2989-2997.]",protonated amine,water
412,[NH3+]Cc1cccc(Br)c1,O,0,0,8.98,[8.98],"[Hunt et al.. J. Chem. Inf. Model, 2020, 60 (6), 2989-2997.]",protonated amine,water
413,CC[NH+](CC)CCNC(=O)c1ccc([N-]S(C)(=O)=O)cc1,O,0,0,9.35,[9.35],"[Hunt et al.. J. Chem. Inf. Model, 2020, 60 (6), 2989-2997.]",protonated amine,water
414,O=C(O)CC(Cl)(Cl)Cl,O,0,0,0.52,[0.52],"[Hunt et al.. J. Chem. Inf. Model, 2020, 60 (6), 2989-2997.]",carboxylic acid,water
415,Cc1cccc(C(=O)O)c1O,O,0,0,2.99,[2.99],"[Hunt et al.. J. Chem. Inf. Model, 2020, 60 (6), 2989-2997.]",carboxylic acid,water
416,COc1ccc2c(c1)C(=O)N(CCc1ccc(S(=O)(=O)NC(=O)NC3CCCCC3)cc1)C(=O)C2(C)C,O,0,0,5,[5.0],"[Hunt et al.. J. Chem. Inf. Model, 2020, 60 (6), 2989-2997.]",amine,water
417,[NH3+]c1ccc(OC(F)(F)C(F)(F)F)cc1,O,0,0,3.78,[3.78],"[Hunt et al.. J. Chem. Inf. Model, 2020, 60 (6), 2989-2997.]",protonated amine,water
418,N#CC(c1c(F)c(F)c(C(F)(F)F)c(F)c1F)c1c(F)c(F)c(C(F)(F)F)c(F)c1F,CS(=O)C,58432-55-6,"2,2-bis[2,3,5,6-tetrafluoro-4-(trifluoromethyl)phenyl]acetonitrile",3.3,[3.3],"[Kutt et al., Eur. J. Org. Chem., 2021, 2021 (9), 1407-1419.]",C-H acid,DMSO
419,c1ccc2c(c1)CC[NH2+]C2,O,0,0,9.41,[9.41],"[Hunt et al.. J. Chem. Inf. Model, 2020, 60 (6), 2989-2997.]",protonated amine,water
420,CCc1ccc(O)cc1,O,0,0,10,[10.0],"[Hunt et al.. J. Chem. Inf. Model, 2020, 60 (6), 2989-2997.]",phenol,water
421,CN(C)P(=N[P+](N=P(N(C)C)(N(C)C)N(C)C)(N=P(N(C)C)(N(C)C)N(C)C)NC(C)(C)C)(N(C)C)N(C)C,CC#N,-,(tert-butylamino)-tris[[tris(dimethylamino)-_5-phosphanylidene]amino]phosphanium,42.7,[42.7],"[Tshepelvitsh et al., Eur. J. Org. Chem., 2019, 6735-6748.]",amine,acetonitrile
422,N#Cc1ccccc1[NH3+],O,0,0,0.95,[0.95],"[Hunt et al.. J. Chem. Inf. Model, 2020, 60 (6), 2989-2997.]",protonated amine,water
423,Cc1cnc(C(=O)NCCc2ccc(S(=O)(=O)NC(=O)NC3CCCCC3)cc2)cn1,O,0,0,5.25,[5.25],"[Hunt et al.. J. Chem. Inf. Model, 2020, 60 (6), 2989-2997.]",amine,water
424,c1c[nH+][nH]n1,CS(=O)C,-,2H-triazol-1-ium,0,[0.0],"[Tshepelvitsh et al., Eur. J. Org. Chem., 2019, 6735-6748.]",protonated amine,DMSO
425,Oc1ccc(O)nn1,O,0,0,13,[13.0],"[Hunt et al.. J. Chem. Inf. Model, 2020, 60 (6), 2989-2997.]",phenol,water
426,Br,CC#N,10035-10-6,bromane,5.471428571,"[5.5, 5.5, 5.5, 5.5, 5.4, 5.4, 5.5]","[Eckert et al., J. Comput. Chem., 2009, 30, 799-810., Kutt et al., Tetrahedron Lett., 2018.,  Kutt et al., J. Org. Chem., 2011, 76, 391-395., Paenurk et al., Chem. Sci., 2017, 8, 6964-6973., Kutt et al., Eur. J. Org. Chem., 2021, 2021 (9), 1407-1419., Kutt et al., Eur. J. Org. Chem., 2021, 2021 (9), 1407-1419., Paenurk et al., Chem. Sci., 2017, 8, 6964-6973.]",inorganic,acetonitrile
427,C[NH2+]c1ccccc1,CC#N,-,methyl(phenyl)azanium,10.97,[10.97],"[Tshepelvitsh et al., Eur. J. Org. Chem., 2019, 6735-6748.]",protonated amine,acetonitrile
428,COc1ccc(C(=C(C#N)C#N)C(C#N)C#N)cc1,C(CCl)Cl,1261286-76-3,,36.1,[36.1],"[Paenurk et al., Chem. Sci., 2017, 8, 6964-6973.]",C-H acid,DCE
429,N#CC(C#N)S(=O)(=O)c1cccc([N+](=O)[O-])c1,CC#N,46764-49-2,-,6.19,"[6.16, 6.22]","[Kutt et al., Eur. J. Org. Chem., 2021, 2021 (9), 1407-1419., Paenurk et al., Chem. Sci., 2017, 8, 6964-6973.]",C-H acid,acetonitrile
430,CSc1cc(O)ncn1,O,0,0,8.52,[8.52],"[Hunt et al.. J. Chem. Inf. Model, 2020, 60 (6), 2989-2997.]",phenol,water
431,O=C(O)c1cc(Cl)cc(Cl)c1,O,0,0,3.54,[3.54],"[Hunt et al.. J. Chem. Inf. Model, 2020, 60 (6), 2989-2997.]",carboxylic acid,water
432,CN(C)c1ccccc1S(=O)(=O)NC(=O)N1CCC(N2CCC(Oc3ccc(Cl)c(Cl)c3)CC2)CC1,O,0,0,6.6,[6.6],"[Hunt et al.. J. Chem. Inf. Model, 2020, 60 (6), 2989-2997.]",amine,water
433,C=CC(C)(C)[NH2+]C(C)(C)CC,O,0,0,10.8,[10.8],"[Hunt et al.. J. Chem. Inf. Model, 2020, 60 (6), 2989-2997.]",protonated amine,water
434,C1=C(C(=O)NC(=O)N1)S,O,0,0,5.3,[5.3],"[Hunt et al.. J. Chem. Inf. Model, 2020, 60 (6), 2989-2997.]",thiol,water
435,Fc1c(F)c(F)c2c(c1F)Cc1c(F)c(F)c(F)c(F)c1-2,CS(=O)C,27053-34-5,"1,2,3,4,5,6,7,8-octafluoro-9H-fluorene",10.8,[10.8],"[Kutt et al., Eur. J. Org. Chem., 2021, 2021 (9), 1407-1419.]",C-H acid,DMSO
436,CCOC(=O)N1CCC(Nc2cc(Cl)cc[nH+]2)CC1,O,0,0,5.3,[5.3],"[Hunt et al.. J. Chem. Inf. Model, 2020, 60 (6), 2989-2997.]",protonated amine,water
437,Cc1ccccc1/C=C/c1ccc([NH+](C)C)cc1,O,0,0,4.67,[4.67],"[Hunt et al.. J. Chem. Inf. Model, 2020, 60 (6), 2989-2997.]",protonated amine,water
438,Cc1ccccc1C[NH+](CCO)CCO,O,0,0,7.1,[7.1],"[Hunt et al.. J. Chem. Inf. Model, 2020, 60 (6), 2989-2997.]",protonated amine,water
439,O=C(O)c1cc([N+](=O)[O-])cc([N+](=O)[O-])c1,CC#N,99-34-3,"3,5-dinitrobenzoic acid",17,[17.0],"[Eckert et al., J. Comput. Chem., 2009, 30, 799-810.]",carboxylic acid,acetonitrile
440,OC(=S)CCCCC(O)=S,O,0,0,3.382,[3.382],"[Hunt et al.. J. Chem. Inf. Model, 2020, 60 (6), 2989-2997.]",hydroxyl alcohol,water
441,Cc1c(C(F)(F)F)c(C(F)(F)F)c(C(F)(F)F)c(C(F)(F)F)c1C(F)(F)F,CS(=O)C,1018330-43-2,"1-methyl-2,3,4,5,6-pentakis(trifluoromethyl)benzene",13.9,[13.9],"[Kutt et al., Eur. J. Org. Chem., 2021, 2021 (9), 1407-1419.]",C-H acid,DMSO
442,O=C(O)COc1ccccc1,O,0,0,3.17,[3.17],"[Hunt et al.. J. Chem. Inf. Model, 2020, 60 (6), 2989-2997.]",carboxylic acid,water
443,Cc1cc([N+](=O)[O-])c[nH+]c1N,O,0,0,3.58,[3.58],"[Hunt et al.. J. Chem. Inf. Model, 2020, 60 (6), 2989-2997.]",protonated amine,water
444,CCCC[N@H+](C)c1ccccc1,O,0,0,6.03,[6.03],"[Hunt et al.. J. Chem. Inf. Model, 2020, 60 (6), 2989-2997.]",protonated amine,water
445,O=[N+]([O-])c1cccc2c1Nc1ccccc1O2,CC#N,26103-27-5,1-nitro-10H-phenoxazine,28.4,[28.4],"[Eckert et al., J. Comput. Chem., 2009, 30, 799-810.]",amine,acetonitrile
446,OC12C(F)(F)C3(F)C(F)(F)C(F)(C1(F)F)C(F)(F)C(F)(C2(F)F)C3(F)F,CC#N,160823-57-4,"2,2,3,4,4,5,6,6,7,8,8,9,9,10,10-pentadecafluoroadamantan-1-ol",18.25,[18.25],"[Paenurk et al., Chem. Sci., 2017, 8, 6964-6973.]",hydroxyl alcohol,acetonitrile
447,CS(=O)(=O)O,CC#N,75-75-2,methanesulfonic acid,9.97,"[9.97, 9.97, 9.97]","[Eckert et al., J. Comput. Chem., 2009, 30, 799-810., Kutt et al., Eur. J. Org. Chem., 2021, 2021 (9), 1407-1419., Kutt et al., Eur. J. Org. Chem., 2021, 2021 (9), 1407-1419.]",sulfonic acid,acetonitrile
448,CC(C)(C)N[P+](N1CCCC1)(N1CCCC1)N1CCCC1,CS(=O)C,-,(tert-butylamino)-tripyrrolidin-1-ylphosphanium,17.4,[17.4],"[Tshepelvitsh et al., Eur. J. Org. Chem., 2019, 6735-6748.]",amine,DMSO
449,COc1ccccc1CCC(=O)O,O,0,0,4.804,[4.804],"[Hunt et al.. J. Chem. Inf. Model, 2020, 60 (6), 2989-2997.]",carboxylic acid,water
450,CCC(CC)n1nc(C)c(C(=O)N[C@@H](C)C(C)(C)C)c1NS(=O)(=O)c1ccc(C)cc1,O,0,0,4.6,[4.6],"[Hunt et al.. J. Chem. Inf. Model, 2020, 60 (6), 2989-2997.]",amine,water
451,O=[N+]([O-])c1cccc(S(=O)(=O)O)c1,CC#N,98-47-5,3-nitrobenzenesulfonic acid,6.615,"[6.65, 6.71, 6.4, 6.7]","[Eckert et al., J. Comput. Chem., 2009, 30, 799-810.,  Kutt et al., J. Org. Chem., 2011, 76, 391-395., Kutt et al., Eur. J. Org. Chem., 2021, 2021 (9), 1407-1419., Paenurk et al., Chem. Sci., 2017, 8, 6964-6973.]",sulfonic acid,acetonitrile
452,O=c1[nH]cc(S)c(=O)[nH]1,O,0,0,5.3,[5.3],"[Hunt et al.. J. Chem. Inf. Model, 2020, 60 (6), 2989-2997.]",thiol,water
453,Oc1ccc(C(F)(F)F)cc1,CS(=O)C,402-45-9,4-(trifluoromethyl)phenol,14.6,[14.6],"[Kutt et al., Eur. J. Org. Chem., 2021, 2021 (9), 1407-1419.]",phenol,DMSO
454,C[NH2+]c1ccccc1[N+](=O)[O-],O,0,0,-0.62,[-0.62],"[Hunt et al.. J. Chem. Inf. Model, 2020, 60 (6), 2989-2997.]",protonated amine,water
455,C[NH2+]c1c(C)cccc1C,O,0,0,6.12,[6.12],"[Hunt et al.. J. Chem. Inf. Model, 2020, 60 (6), 2989-2997.]",protonated amine,water
456,CC(=O)Oc1cccc(C(=O)O)c1,O,0,0,4,[4.0],"[Hunt et al.. J. Chem. Inf. Model, 2020, 60 (6), 2989-2997.]",carboxylic acid,water
457,O=[N+]([O-])c1ccccc1O,CS(=O)C,88-75-5,2-nitrophenol,11,[11.0],"[Kutt et al., Eur. J. Org. Chem., 2021, 2021 (9), 1407-1419.]",phenol,DMSO
458,CCC1(c2ccccc2)C(=O)NC(=O)NC1=O,O,0,0,7.5,[7.5],"[Hunt et al.. J. Chem. Inf. Model, 2020, 60 (6), 2989-2997.]",amine,water
459,COc1cc(C(=O)O)ccc1O,O,0,0,4.355,[4.355],"[Hunt et al.. J. Chem. Inf. Model, 2020, 60 (6), 2989-2997.]",carboxylic acid,water
460,[NH3+]C1CCCCC1,O,0,0,10.68,[10.68],"[Hunt et al.. J. Chem. Inf. Model, 2020, 60 (6), 2989-2997.]",protonated amine,water
461,[NH3+][C@@H](CCC(=O)N[C@@H](CS)C(=O)NCC(=O)O)C(=O)[O-],O,0,0,8.56,[8.56],"[Hunt et al.. J. Chem. Inf. Model, 2020, 60 (6), 2989-2997.]",protonated amine,water
462,CC[C@H](Cl)C(=O)O,O,0,0,2.86,[2.86],"[Hunt et al.. J. Chem. Inf. Model, 2020, 60 (6), 2989-2997.]",carboxylic acid,water
463,Cc1cc(Cl)ccc1O,O,0,0,9.71,[9.71],"[Hunt et al.. J. Chem. Inf. Model, 2020, 60 (6), 2989-2997.]",phenol,water
464,C1=C(Cc2ccccc2)[NH2+]CC1,O,0,0,7.06,[7.06],"[Hunt et al.. J. Chem. Inf. Model, 2020, 60 (6), 2989-2997.]",protonated amine,water
465,[NH3+][C@H](Cc1ccccc1)C(=O)[O-],O,0,0,8.9,[8.9],"[Hunt et al.. J. Chem. Inf. Model, 2020, 60 (6), 2989-2997.]",protonated amine,water
466,N[C@@H]1CCc2cc(O)c(O)cc2C1,O,0,0,9.1,"[9.1, 9.1]","[Hunt et al.. J. Chem. Inf. Model, 2020, 60 (6), 2989-2997. ,   Hunt et al.. J. Chem. Inf. Model, 2020, 60 (6), 2989-2997.]",phenol,water
467,Cc1cc(C(C)(C)C)c(O)c(C(C)(C)C)c1,O,0,0,12.23,[12.23],"[Hunt et al.. J. Chem. Inf. Model, 2020, 60 (6), 2989-2997.]",phenol,water
468,CCC[NH3+],C1CCOC1,,propylazanium,13.8,[13.8],"[Tshepelvitsh et al., Eur. J. Org. Chem., 2019, 6735-6748.]",protonated amine,THF
469,O=[N+]([O-])c1ccc2c(c1)Oc1cc([N+](=O)[O-])cc([N+](=O)[O-])c1N2,CC#N,-,"1,3,7-trinitro-10H-phenoxazine",20.3,[20.3],"[Eckert et al., J. Comput. Chem., 2009, 30, 799-810.]",amine,acetonitrile
470,CO[C@@]1(NC(=O)CSCC#N)C(=O)N2C(C(=O)O)=C(CSc3nnnn3C)CS[C@@H]21,O,0,0,3.37,[3.37],"[Hunt et al.. J. Chem. Inf. Model, 2020, 60 (6), 2989-2997.]",carboxylic acid,water
471,CC(C)[NH2+]C[C@H](O)c1ccccc1,O,0,0,9.5,[9.5],"[Hunt et al.. J. Chem. Inf. Model, 2020, 60 (6), 2989-2997.]",protonated amine,water
472,[NH3+]Cc1cccc(F)c1,O,0,0,9.04,[9.04],"[Hunt et al.. J. Chem. Inf. Model, 2020, 60 (6), 2989-2997.]",protonated amine,water
473,O=C(O)[C@@H]1Cc2c([nH]c3ccccc23)[C@H](c2ccccc2)[NH2+]1,O,0,0,8,[8.0],"[Hunt et al.. J. Chem. Inf. Model, 2020, 60 (6), 2989-2997.]",protonated amine,water
474,CCOc1cccc(C(=O)O)c1CO,O,0,0,3.62,[3.62],"[Hunt et al.. J. Chem. Inf. Model, 2020, 60 (6), 2989-2997.]",carboxylic acid,water
475,CC(C)(CN)C[NH3+],O,0,0,10.22,[10.22],"[Hunt et al.. J. Chem. Inf. Model, 2020, 60 (6), 2989-2997.]",protonated amine,water
476,[NH3+][C@@H]1CCc2cc(O)c(O)cc2C1,O,0,0,9.566666667,"[9.1, 10.5, 9.1]","[Hunt et al.. J. Chem. Inf. Model, 2020, 60 (6), 2989-2997. ,   Hunt et al.. J. Chem. Inf. Model, 2020, 60 (6), 2989-2997. ,   Hunt et al.. J. Chem. Inf. Model, 2020, 60 (6), 2989-2997.]",protonated amine,water
477,CC[NH+](CC)CCCl,O,0,0,8.8,[8.8],"[Hunt et al.. J. Chem. Inf. Model, 2020, 60 (6), 2989-2997.]",protonated amine,water
478,CC(C)(C)NC(=O)[C@@H]1C[C@@H]2CCCC[C@@H]2C[N@H+]1C[C@@H](O)[C@H](Cc1ccccc1)NC(=O)[C@H](CC(N)=O)NC(=O)c1ccc2ccccc2n1,O,0,0,7.14,[7.14],"[Hunt et al.. J. Chem. Inf. Model, 2020, 60 (6), 2989-2997.]",protonated amine,water
479,Cc1cccc(C(=O)O)c1C(=O)O,CC#N,37102-74-2,3-methylphthalic acid,17,[17.0],"[Eckert et al., J. Comput. Chem., 2009, 30, 799-810.]",carboxylic acid,acetonitrile
480,O=[N+]([O-])c1cccc([N+](=O)[O-])c1O,CN(C)C=O,573-56-8,"2,6-dinitrophenol",6.18,[6.18],"[Kutt et al., Eur. J. Org. Chem., 2021, 2021 (9), 1407-1419.]",phenol,DMF
481,NC1=[NH+][C@H](c2cccs2)Nc2cccc(F)c21,O,0,0,8.73,[8.73],"[Hunt et al.. J. Chem. Inf. Model, 2020, 60 (6), 2989-2997.]",protonated amine,water
482,CC1=[NH+]C[C@H](C)S1,O,0,0,5.256,[5.256],"[Hunt et al.. J. Chem. Inf. Model, 2020, 60 (6), 2989-2997.]",protonated amine,water
483,O=S(=O)(N=C(NS(=O)(=O)C(F)(F)F)c1ccccc1)C(F)(F)F,CC#N,500721-91-5,"N,N'-bis(trifluoromethylsulfonyl)benzenecarboximidamide",5.764,"[5.71, 5.68, 5.71, 6.04, 5.68]","[ Kutt et al., J. Org. Chem., 2011, 76, 391-395., Kutt et al., Eur. J. Org. Chem., 2021, 2021 (9), 1407-1419., Paenurk et al., Chem. Sci., 2017, 8, 6964-6973., Eckert et al., J. Comput. Chem., 2009, 30, 799-810., Kutt et al., Eur. J. Org. Chem., 2021, 2021 (9), 1407-1419.]",amine,acetonitrile
484,C[C@@H](C(=O)O)[N+](=O)[O-],O,0,0,3.79,[3.79],"[Hunt et al.. J. Chem. Inf. Model, 2020, 60 (6), 2989-2997.]",carboxylic acid,water
485,Oc1c(C[NH+]2CCCCC2)ccc2cccnc12,O,0,0,10.9,[10.9],"[Hunt et al.. J. Chem. Inf. Model, 2020, 60 (6), 2989-2997.]",protonated amine,water
486,CN(C)[P+](Nc1ccccc1)(N(C)C)N(C)C,O,-,anilino-tris(dimethylamino)phosphanium,10.64,[10.64],"[Tshepelvitsh et al., Eur. J. Org. Chem., 2019, 6735-6748.]",amine,water
487,[NH3+][C@H]1CCN(c2c(F)cc3c(=O)c(C(=O)O)cn(C4CC4)c3c2Cl)C1,O,0,0,5.77,[5.77],"[Hunt et al.. J. Chem. Inf. Model, 2020, 60 (6), 2989-2997.]",protonated amine,water
488,Nc1cc2ccccc2c[nH+]1,O,0,0,5.03,[5.03],"[Hunt et al.. J. Chem. Inf. Model, 2020, 60 (6), 2989-2997.]",protonated amine,water
489,CN(C)CCCC[NH+](C)C,CS(=O)C,-,4-(dimethylamino)butyl-dimethylazanium,10,[10.0],"[Tshepelvitsh et al., Eur. J. Org. Chem., 2019, 6735-6748.]",protonated amine,DMSO
490,C1CCC2=NCCC[NH+]2CC1,CS(=O)C,-,"3,4,5,6,7,8,9,10-octahydro-2H-pyrimido[1,2-a]azepin-5-ium",13.9,"[13.9, 13.9]","[Kutt et al., Tetrahedron Lett., 2018., Tshepelvitsh et al., Eur. J. Org. Chem., 2019, 6735-6748.]",protonated amine,DMSO
491,O=C1C[C@@H](C(N1)=O)S,O,0,0,6.7,[6.7],"[Hunt et al.. J. Chem. Inf. Model, 2020, 60 (6), 2989-2997.]",thiol,water
492,O=C(O)c1nc(Cl)ccc1Cl,O,0,0,2.32,[2.32],"[Hunt et al.. J. Chem. Inf. Model, 2020, 60 (6), 2989-2997.]",carboxylic acid,water
493,CN(C)c1cccc2cccc([NH+](C)C)c12,C1CCOC1,-,[8-(dimethylamino)naphthalen-1-yl]-dimethylazanium,11.1,[11.1],"[Tshepelvitsh et al., Eur. J. Org. Chem., 2019, 6735-6748.]",protonated amine,THF
494,O=C(O)C(c1ccccc1)(c1ccccc1)c1ccccc1,O,0,0,3.96,[3.96],"[Hunt et al.. J. Chem. Inf. Model, 2020, 60 (6), 2989-2997.]",carboxylic acid,water
495,[NH3+]c1cccc(SC(F)(F)F)c1,O,0,0,3.3,[3.3],"[Hunt et al.. J. Chem. Inf. Model, 2020, 60 (6), 2989-2997.]",protonated amine,water
496,Cc1cccc([NH2+][C@H]2CCc3ccccc32)c1,O,0,0,2.49,[2.49],"[Hunt et al.. J. Chem. Inf. Model, 2020, 60 (6), 2989-2997.]",protonated amine,water
497,N#CC(C#N)=C(Cl)C(C#N)C#N,C(CCl)Cl,1261286-80-9,"2-chloroprop-1-ene-1,1,3,3-tetracarbonitrile",32.9,[32.9],"[Paenurk et al., Chem. Sci., 2017, 8, 6964-6973.]",C-H acid,DCE
498,COc1cccc(OC)[nH+]1,CC#N,,"2,6-dimethoxypyridin-1-ium",7.64,[7.64],"[Lokov et al., Eur. J. Org. Chem., 2017, 30, 4475-4489.]",protonated amine,acetonitrile
499,Nc1ccc(CC(=O)O)cc1,O,0,0,3.6,[3.6],"[Hunt et al.. J. Chem. Inf. Model, 2020, 60 (6), 2989-2997.]",carboxylic acid,water
500,Cc1c(C)c([N+](=O)[O-])c(C)c(C)c1[NH3+],O,0,0,2.36,[2.36],"[Hunt et al.. J. Chem. Inf. Model, 2020, 60 (6), 2989-2997.]",protonated amine,water
501,CCC(=O)OCC[NH+](C)C,O,0,0,8.29,[8.29],"[Hunt et al.. J. Chem. Inf. Model, 2020, 60 (6), 2989-2997.]",protonated amine,water
502,COC(=O)c1cc2nc([S@@](=O)Cc3[nH+]cccc3C)[nH]c2cc1C,O,0,0,3.5,[3.5],"[Hunt et al.. J. Chem. Inf. Model, 2020, 60 (6), 2989-2997.]",protonated amine,water
503,[NH3+]c1ccccc1[N+](=O)[O-],CC#N,,(2-nitrophenyl)azanium,4.8,[4.8],"[Lokov et al., Eur. J. Org. Chem., 2017, 30, 4475-4489.]",protonated amine,acetonitrile
504,O=C(NCC12CC3CC(CC(C3)C1)C2)c1cc(OC2CC[NH2+]CC2)ncc1Cl,O,0,0,9.1,[9.1],"[Hunt et al.. J. Chem. Inf. Model, 2020, 60 (6), 2989-2997.]",protonated amine,water