,Solute SMILES,Solvent SMILES,Solute CAS,Solute IUPAC,pKa (avg),pKa (all),Source (all),Acid type,Solvent name
2112,OC(C(F)(F)F)C(F)(F)F,O,0,0,9.3,[9.3],"[Hunt et al.. J. Chem. Inf. Model, 2020, 60 (6), 2989-2997.]",hydroxyl alcohol,water
2113,O=[N+]([O-])c1c(O)c([N+](=O)[O-])c2c([N+](=O)[O-])c1S2,CC#N,-,"2,4,7-trinitro-6-thiabicyclo[3.1.1]hepta-1(7),2,4-trien-3-ol",11,[11.0],"[Eckert et al., J. Comput. Chem., 2009, 30, 799-810.]",phenol,acetonitrile
2114,CC(C)[NH2+]C[C@H](O)c1ccccc1Br,O,0,0,9.4,[9.4],"[Hunt et al.. J. Chem. Inf. Model, 2020, 60 (6), 2989-2997.]",protonated amine,water
2115,Oc1cccc2ccccc12,O,0,0,9.3,[9.3],"[Hunt et al.. J. Chem. Inf. Model, 2020, 60 (6), 2989-2997.]",phenol,water
2116,Oc1c(C(F)(F)F)c(C(F)(F)F)c(C(F)(F)F)c(C(F)(F)F)c1C(F)(F)F,O,723294-91-5,"2,3,4,5,6-pentakis(trifluoromethyl)phenol",1.32,[1.32],"[Kutt et al., Eur. J. Org. Chem., 2021, 2021 (9), 1407-1419.]",phenol,water
2117,CC(C)(C)c1ccc(O)cc1,O,0,0,10.23,[10.23],"[Hunt et al.. J. Chem. Inf. Model, 2020, 60 (6), 2989-2997.]",phenol,water
2118,C[NH+](C)C,CC#N,,trimethylazanium,17.61,[17.61],"[Tshepelvitsh et al., Eur. J. Org. Chem., 2019, 6735-6748.]",protonated amine,acetonitrile
2119,O=C([O-])[C@H](c1ccccc1)[NH+]1CCC(CN2CCC(Oc3ccc(Cl)c(Cl)c3)CC2)CC1,O,0,0,9.6,[9.6],"[Hunt et al.. J. Chem. Inf. Model, 2020, 60 (6), 2989-2997.]",protonated amine,water
2120,O=C(O)CCCCCCCC(=O)O,CC#N,123-99-9,nonanedioic acid,20.9,[20.9],"[Eckert et al., J. Comput. Chem., 2009, 30, 799-810.]",carboxylic acid,acetonitrile
2121,CCCc1[nH+]c(C(C)(C)O)c(C(=O)OCc2oc(=O)oc2C)n1Cc1ccc(-c2ccccc2-c2nnn[n-]2)cc1,O,0,0,6.05,[6.05],"[Hunt et al.. J. Chem. Inf. Model, 2020, 60 (6), 2989-2997.]",protonated amine,water
2122,Cc1ccc(O)c(C(C)(C)C)c1,O,0,0,11.5,[11.5],"[Hunt et al.. J. Chem. Inf. Model, 2020, 60 (6), 2989-2997.]",phenol,water
2123,CCCC[NH+]1CCCCC1,O,0,0,10.43,[10.43],"[Hunt et al.. J. Chem. Inf. Model, 2020, 60 (6), 2989-2997.]",protonated amine,water
2124,Cc1cccc(C)c1C(=[NH2+])c1ccccc1,O,0,0,6.29,[6.29],"[Hunt et al.. J. Chem. Inf. Model, 2020, 60 (6), 2989-2997.]",protonated amine,water
2125,CCC(C)(C)S,O,0,0,11.22,[11.22],"[Hunt et al.. J. Chem. Inf. Model, 2020, 60 (6), 2989-2997.]",thiol,water
2126,O=[N+]([O-])c1ccc(S(=O)(=O)NS(=O)(=NS(=O)(=O)C(F)(F)F)c2ccc(Cl)cc2)cc1,C(CCl)Cl,174788-97-7,,35.9,[35.9],"[Paenurk et al., Chem. Sci., 2017, 8, 6964-6973.]",amine,DCE
2127,c1cnc2c(c1)ccc1ccc3ccc[nH+]c3c12,CC#N,,,19.61,[19.61],"[Lokov et al., Eur. J. Org. Chem., 2017, 30, 4475-4489.]",protonated amine,acetonitrile
2128,NC(Nc1ccccc1)=[NH+]c1ccccc1,C1CCOC1,-,[amino(anilino)methylidene]-phenylazanium,13.9,[13.9],"[Tshepelvitsh et al., Eur. J. Org. Chem., 2019, 6735-6748.]",protonated amine,THF
2129,COc1ccc([C@@H](O)C[NH2+]CC(C)C)cc1OC,O,0,0,9.28,[9.28],"[Hunt et al.. J. Chem. Inf. Model, 2020, 60 (6), 2989-2997.]",protonated amine,water
2130,Cc1ccc([C@@H](O)C[NH2+]C(C)C)cc1C,O,0,0,9.38,[9.38],"[Hunt et al.. J. Chem. Inf. Model, 2020, 60 (6), 2989-2997.]",protonated amine,water
2131,c1c[nH+][nH]n1,CC#N,-,2H-triazol-1-ium,7.95,"[7.9, 8.0]","[Lokov et al., Eur. J. Org. Chem., 2017, 30, 4475-4489., Tshepelvitsh et al., Eur. J. Org. Chem., 2019, 6735-6748.]",protonated amine,acetonitrile
2132,O=S1(=O)NS(=O)(=O)Oc2c(-c3cc(C(F)(F)F)cc(C(F)(F)F)c3)cc3ccccc3c2-c2c(c(-c3cc(C(F)(F)F)cc(C(F)(F)F)c3)cc3ccccc23)O1,CC#N,1486486-93-4,"10,18-bis[3,5-bis(trifluoromethyl)phenyl]-12,16-dioxa-136,156-dithia-14-azapentacyclo[15.8.0.02,11.03,8.020,25]pentacosa-1(17),2(11),3,5,7,9,18,20,22,24-decaene 13,13,15,15-tetraoxide",5.085,"[4.97, 5.2]","[Kutt et al., Eur. J. Org. Chem., 2021, 2021 (9), 1407-1419., Paenurk et al., Chem. Sci., 2017, 8, 6964-6973.]",amine,acetonitrile
2133,Fc1nc(F)c(F)c(Nc2ccccc2)c1F,CC#N,39077-43-5,"2,3,5,6-tetrafluoro-N-phenylpyridin-4-amine",24.8575,"[26.34, 20.39, 26.36, 26.34]","[Eckert et al., J. Comput. Chem., 2009, 30, 799-810., Kutt et al., Eur. J. Org. Chem., 2021, 2021 (9), 1407-1419., Kutt et al., Eur. J. Org. Chem., 2021, 2021 (9), 1407-1419., Paenurk et al., Chem. Sci., 2017, 8, 6964-6973.]",amine,acetonitrile
2134,CC(C)C[C@H]([NH3+])c1ccc(Cl)cc1,O,0,0,8.47,[8.47],"[Hunt et al.. J. Chem. Inf. Model, 2020, 60 (6), 2989-2997.]",protonated amine,water
2135,CC(C)[NH2+]C[C@@H](C)O,O,0,0,10,[10.0],"[Hunt et al.. J. Chem. Inf. Model, 2020, 60 (6), 2989-2997.]",protonated amine,water
2136,Cc1c(C2(c3cc(C(C)C)c(O)c(Br)c3C)OS(=O)(=O)c3ccccc32)cc(C(C)C)c(O)c1Br,CC#N,76-59-5,"2-bromo-4-[3-(3-bromo-4-hydroxy-2-methyl-5-propan-2-ylphenyl)-1,1-dioxo-2,16-benzoxathiol-3-yl]-3-methyl-6-propan-2-ylphenol",11.7,[11.7],"[Paenurk et al., Chem. Sci., 2017, 8, 6964-6973.]",phenol,acetonitrile
2137,COc1nn(C(=O)NS(=O)(=O)c2ccccc2OC(F)(F)F)c(=O)n1C,O,0,0,1.9,[1.9],"[Hunt et al.. J. Chem. Inf. Model, 2020, 60 (6), 2989-2997.]",amine,water
2138,CC(C)(C(=O)[O-])c1ccc([C@@H](O)CCC[NH+]2CCC(C(O)(c3ccccc3)c3ccccc3)CC2)cc1,O,0,0,7.53,[7.53],"[Hunt et al.. J. Chem. Inf. Model, 2020, 60 (6), 2989-2997.]",protonated amine,water
2139,CCOc1[nH+]cc(C)c2c1[C@H](c1ccc(C#N)cc1OC)C(C(N)=O)=C(C)N2,O,0,0,4.68,[4.68],"[Hunt et al.. J. Chem. Inf. Model, 2020, 60 (6), 2989-2997.]",protonated amine,water
2140,O=C(O)C(F)=C(F)F,O,0,0,1.79,[1.79],"[Hunt et al.. J. Chem. Inf. Model, 2020, 60 (6), 2989-2997.]",carboxylic acid,water
2141,CC[NH2+]C[C@H](O)c1cccc(O)c1,O,0,0,8.983,[8.983],"[Hunt et al.. J. Chem. Inf. Model, 2020, 60 (6), 2989-2997.]",protonated amine,water
2142,c1ccc2c(CC3=[NH+]CCN3)cccc2c1,O,0,0,10.3,[10.3],"[Hunt et al.. J. Chem. Inf. Model, 2020, 60 (6), 2989-2997.]",protonated amine,water
2143,O=C(O)CCCl,O,0,0,3.99,[3.99],"[Hunt et al.. J. Chem. Inf. Model, 2020, 60 (6), 2989-2997.]",carboxylic acid,water
2144,CC(C)[NH2+]C[C@H](O)c1ccc(F)cc1,O,0,0,9.35,[9.35],"[Hunt et al.. J. Chem. Inf. Model, 2020, 60 (6), 2989-2997.]",protonated amine,water
2145,CCC[NH+](CCC)CCC,C1CCOC1,-,tripropylazanium,13,[13.0],"[Tshepelvitsh et al., Eur. J. Org. Chem., 2019, 6735-6748.]",protonated amine,THF
2146,Oc1cccc(I)c1,O,0,0,8.88,[8.88],"[Hunt et al.. J. Chem. Inf. Model, 2020, 60 (6), 2989-2997.]",phenol,water
2147,N#CC(C#N)c1ccc([N+](=O)[O-])cc1,O,7077-65-8,2-(4-nitrophenyl)propanedinitrile,2.3,[2.3],"[Kutt et al., Eur. J. Org. Chem., 2021, 2021 (9), 1407-1419.]",C-H acid,water
2148,c1ccc2c(c1)ccc1ccc[nH+]c12,CC#N,,benzo[h]quinolin-1-ium,10.84,[10.84],"[Lokov et al., Eur. J. Org. Chem., 2017, 30, 4475-4489.]",protonated amine,acetonitrile
2149,Oc1ccc2ncccc2c1,O,0,0,8.9,[8.9],"[Hunt et al.. J. Chem. Inf. Model, 2020, 60 (6), 2989-2997.]",phenol,water
2150,CC[C@@](C)(S)[C@H](N)C(=O)O,O,0,0,8.1,[8.1],"[Hunt et al.. J. Chem. Inf. Model, 2020, 60 (6), 2989-2997.]",carboxylic acid,water
2151,COc1ccc(C[C@@H](C)[NH3+])cc1OC,O,0,0,9.6,[9.6],"[Hunt et al.. J. Chem. Inf. Model, 2020, 60 (6), 2989-2997.]",protonated amine,water
2152,N#CC(=O)O,O,0,0,2.46,[2.46],"[Hunt et al.. J. Chem. Inf. Model, 2020, 60 (6), 2989-2997.]",carboxylic acid,water
2153,COc1ccc(-c2ccccc2O)cc1,O,0,0,11.38,[11.38],"[Hunt et al.. J. Chem. Inf. Model, 2020, 60 (6), 2989-2997.]",phenol,water
2154,Cc1ccc(C(C)C)c(O)c1,O,0,0,10.62,[10.62],"[Hunt et al.. J. Chem. Inf. Model, 2020, 60 (6), 2989-2997.]",phenol,water
2155,[NH3+]Cc1ccccc1,CC#N,-,benzylazanium,16.92,[16.92],"[Tshepelvitsh et al., Eur. J. Org. Chem., 2019, 6735-6748.]",protonated amine,acetonitrile
2156,CCC[NH+](CCC)CCc1ccc(O)c2c1CC(=O)N2,O,0,0,9.275,"[10.2, 8.35]","[Hunt et al.. J. Chem. Inf. Model, 2020, 60 (6), 2989-2997. ,   Hunt et al.. J. Chem. Inf. Model, 2020, 60 (6), 2989-2997.]",protonated amine,water
2157,C[NH+]1CC1,O,0,0,7.9,[7.9],"[Hunt et al.. J. Chem. Inf. Model, 2020, 60 (6), 2989-2997.]",protonated amine,water
2158,CCCCC(=O)O,O,0,0,4.85,[4.85],"[Hunt et al.. J. Chem. Inf. Model, 2020, 60 (6), 2989-2997.]",carboxylic acid,water
2159,C[C@@H]1CC[NH2+][C@H](C)C1,O,0,0,10.73,[10.73],"[Hunt et al.. J. Chem. Inf. Model, 2020, 60 (6), 2989-2997.]",protonated amine,water
2160,O=C(O)c1cccc(Cl)c1CO,O,0,0,3.27,[3.27],"[Hunt et al.. J. Chem. Inf. Model, 2020, 60 (6), 2989-2997.]",carboxylic acid,water
2161,C[C@H]1C[NH2+]1,O,0,0,8.18,[8.18],"[Hunt et al.. J. Chem. Inf. Model, 2020, 60 (6), 2989-2997.]",protonated amine,water
2162,CN(C)[P+](NC(C)(C)C)(N(C)C)N(C)C,CC#N,-,(tert-butylamino)-tris(dimethylamino)phosphanium,26.98,[26.98],"[Tshepelvitsh et al., Eur. J. Org. Chem., 2019, 6735-6748.]",amine,acetonitrile
2163,C[NH+](C)C1CCCCC1,O,0,0,10.72,[10.72],"[Hunt et al.. J. Chem. Inf. Model, 2020, 60 (6), 2989-2997.]",protonated amine,water
2164,[NH4+],CC#N,14798-03-9,azanium,16.46,[16.46],"[Tshepelvitsh et al., Eur. J. Org. Chem., 2019, 6735-6748.]",inorganic,acetonitrile
2165,CO/N=C1\CN(c2nc3c(cc2F)c(=O)c(C(=O)[O-])cn3C2CC2)C[C@@H]1C[NH3+],O,0,0,8.6,[8.6],"[Hunt et al.. J. Chem. Inf. Model, 2020, 60 (6), 2989-2997.]",protonated amine,water
2166,CC=CC=CC(=O)O,CC#N,110-44-1,"hexa-2,4-dienoic acid",22.97,"[22.97, 22.97]","[Kutt et al., Eur. J. Org. Chem., 2021, 2021 (9), 1407-1419., Kutt et al., Eur. J. Org. Chem., 2021, 2021 (9), 1407-1419.]",carboxylic acid,acetonitrile
2167,Cc1cccc([NH+](C)C)c1,O,0,0,5.344,[5.344],"[Hunt et al.. J. Chem. Inf. Model, 2020, 60 (6), 2989-2997.]",protonated amine,water
2168,O=C(O)c1ncccn1,O,0,0,2.85,[2.85],"[Hunt et al.. J. Chem. Inf. Model, 2020, 60 (6), 2989-2997.]",carboxylic acid,water
2169,C1C[NH+]2CCN1CC2,CS(=O)C,49623-77-0,4-aza-1-azoniabicyclo[2.2.2]octane,9.06,[9.06],"[Tshepelvitsh et al., Eur. J. Org. Chem., 2019, 6735-6748.]",protonated amine,DMSO
2170,c1ccc(CC[NH+]2CCCC2)nc1,O,0,0,9.39,[9.39],"[Hunt et al.. J. Chem. Inf. Model, 2020, 60 (6), 2989-2997.]",protonated amine,water
2171,O=[N+]([O-])c1ccc(O)c([N+](=O)[O-])c1,CC#N,51-28-5,"2,4-dinitrophenol",16.656,"[16.66, 16.66, 16.65, 16.65, 16.66]","[Eckert et al., J. Comput. Chem., 2009, 30, 799-810., Kutt et al., Tetrahedron Lett., 2018., Kutt et al., Eur. J. Org. Chem., 2021, 2021 (9), 1407-1419., Kutt et al., Eur. J. Org. Chem., 2021, 2021 (9), 1407-1419., Paenurk et al., Chem. Sci., 2017, 8, 6964-6973.]",phenol,acetonitrile
2172,CC(C)(C)c1ccc(S(=O)(=O)CC(=O)O)cc1,O,0,0,2.598,[2.598],"[Hunt et al.. J. Chem. Inf. Model, 2020, 60 (6), 2989-2997.]",carboxylic acid,water
2173,Cc1c(F)c(F)c(C(C#N)c2ccccc2)c(F)c1F,CS(=O)C,58432-62-5,"2-phenyl-2-(2,3,5,6-tetrafluoro-4-methylphenyl)acetonitrile",13.2,[13.2],"[Kutt et al., Eur. J. Org. Chem., 2021, 2021 (9), 1407-1419.]",C-H acid,DMSO
2174,C[C@H]([NH3+])CO,O,0,0,9.43,[9.43],"[Hunt et al.. J. Chem. Inf. Model, 2020, 60 (6), 2989-2997.]",protonated amine,water
2175,O=C(O)CF,O,0,0,2.59,[2.59],"[Hunt et al.. J. Chem. Inf. Model, 2020, 60 (6), 2989-2997.]",carboxylic acid,water
2176,[NH3+]CC(Cl)(Cl)Cl,O,0,0,5.47,[5.47],"[Hunt et al.. J. Chem. Inf. Model, 2020, 60 (6), 2989-2997.]",protonated amine,water
2177,C[C@H](Oc1ccc(Cl)cc1)C(=O)O,O,0,0,3.26,[3.26],"[Hunt et al.. J. Chem. Inf. Model, 2020, 60 (6), 2989-2997.]",carboxylic acid,water
2178,C[C@H](Oc1cc(Cl)c(Cl)cc1Cl)C(=O)O,O,0,0,2.84,[2.84],"[Hunt et al.. J. Chem. Inf. Model, 2020, 60 (6), 2989-2997.]",carboxylic acid,water
2179,c1ccc(C[NH2+]Cc2ccccc2)cc1,O,0,0,8.52,"[8.52, 8.52]","[Hunt et al.. J. Chem. Inf. Model, 2020, 60 (6), 2989-2997. ,   Tshepelvitsh et al., Eur. J. Org. Chem., 2019, 6735-6748.]",protonated amine,water
2180,O=[N+]([O-])c1ccccc1O,CC#N,88-75-5,2-nitrophenol,22.85,"[22.85, 22.85, 22.85, 22.85]","[Eckert et al., J. Comput. Chem., 2009, 30, 799-810., Kutt et al., Eur. J. Org. Chem., 2021, 2021 (9), 1407-1419., Kutt et al., Eur. J. Org. Chem., 2021, 2021 (9), 1407-1419., Paenurk et al., Chem. Sci., 2017, 8, 6964-6973.]",phenol,acetonitrile
2181,c1ccc2[nH+]c3ccccc3cc2c1,CC#N,-,acridin-10-ium,12.665,"[12.67, 12.66]","[Lokov et al., Eur. J. Org. Chem., 2017, 30, 4475-4489., Tshepelvitsh et al., Eur. J. Org. Chem., 2019, 6735-6748.]",protonated amine,acetonitrile
2182,C[C@@H](Cl)CC(=O)O,O,0,0,4.05,[4.05],"[Hunt et al.. J. Chem. Inf. Model, 2020, 60 (6), 2989-2997.]",carboxylic acid,water
2183,CCOP(=O)(C[NH+](C)C)OCC,O,0,0,5.85,[5.85],"[Hunt et al.. J. Chem. Inf. Model, 2020, 60 (6), 2989-2997.]",protonated amine,water
2184,O=C(NCC12CC3CC(CC(C3)C1)C2)c1cc(N2CC[NH2+]CC2)ncc1Cl,O,0,0,8.5,[8.5],"[Hunt et al.. J. Chem. Inf. Model, 2020, 60 (6), 2989-2997.]",protonated amine,water
2185,Oc1cc(Cl)c(Cl)c(Cl)c1,CC#N,609-19-8,"3,4,5-trichlorophenol",22.5,[22.5],"[Eckert et al., J. Comput. Chem., 2009, 30, 799-810.]",phenol,acetonitrile
2186,Oc1c(Br)c(Br)c(Br)c(Br)c1Br,CC#N,608-71-9,"2,3,4,5,6-pentabromophenol",17.82,"[17.83, 17.81, 17.81, 17.83]","[Eckert et al., J. Comput. Chem., 2009, 30, 799-810., Kutt et al., Eur. J. Org. Chem., 2021, 2021 (9), 1407-1419., Kutt et al., Eur. J. Org. Chem., 2021, 2021 (9), 1407-1419., Paenurk et al., Chem. Sci., 2017, 8, 6964-6973.]",phenol,acetonitrile
2187,O=P1(NS(=O)(=O)C(F)(F)F)Oc2c(-c3ccccc3)cc3c(c2-c2c4c(cc(C5C=CC=CC5)c2O1)CCCC4)CCCC3,CC#N,1261302-62-8,,6.69,"[6.68, 6.7]","[Kutt et al., Eur. J. Org. Chem., 2021, 2021 (9), 1407-1419., Paenurk et al., Chem. Sci., 2017, 8, 6964-6973.]",amine,acetonitrile
2188,COC(=O)[C@H](CC(=O)O)c1ccccc1,O,0,0,4.36,[4.36],"[Hunt et al.. J. Chem. Inf. Model, 2020, 60 (6), 2989-2997.]",carboxylic acid,water
2189,CC(C)[NH2+]C[C@H](O)c1cccc([N+](=O)[O-])c1,O,0,0,9.21,[9.21],"[Hunt et al.. J. Chem. Inf. Model, 2020, 60 (6), 2989-2997.]",protonated amine,water
2190,C[NH2+]CCc1ccc(O)c(O)c1,O,0,0,8.9,[8.9],"[Hunt et al.. J. Chem. Inf. Model, 2020, 60 (6), 2989-2997.]",protonated amine,water
2191,COc1cccc(OC)c1C(=O)N[C@@H]1C(=O)N2[C@@H](C(=O)O)C(C)(C)S[C@H]12,O,0,0,2.77,[2.77],"[Hunt et al.. J. Chem. Inf. Model, 2020, 60 (6), 2989-2997.]",carboxylic acid,water
2192,C[NH2+]CC[C@H](O)c1ccccc1,O,0,0,9.565,[9.565],"[Hunt et al.. J. Chem. Inf. Model, 2020, 60 (6), 2989-2997.]",protonated amine,water
2193,C1CC2CCC1C[NH2+]C2,O,0,0,10.57,[10.57],"[Hunt et al.. J. Chem. Inf. Model, 2020, 60 (6), 2989-2997.]",protonated amine,water
2194,O=C1C=C[NH2+]C(=O)N1,CC#N,,"1H-pyrimidin-1-ium-2,4-dione",3.38,[3.38],"[Lokov et al., Eur. J. Org. Chem., 2017, 30, 4475-4489.]",protonated amine,acetonitrile
2195,[NH3+]c1nc(=O)c2ncn(COCCO)c2[nH]1,O,0,0,2.2,[2.2],"[Hunt et al.. J. Chem. Inf. Model, 2020, 60 (6), 2989-2997.]",protonated amine,water
2196,O=C(O)c1ccc(Br)cc1,O,0,0,3.97,[3.97],"[Hunt et al.. J. Chem. Inf. Model, 2020, 60 (6), 2989-2997.]",carboxylic acid,water
2197,c1ccc2c(c1)ccc1[nH+]cccc12,O,,benzo[f]quinolin-4-ium,5.15,[5.15],"[Lokov et al., Eur. J. Org. Chem., 2017, 30, 4475-4489.]",protonated amine,water
2198,C1CCC([NH2+]C2CCCC2)C1,O,0,0,10.93,[10.93],"[Hunt et al.. J. Chem. Inf. Model, 2020, 60 (6), 2989-2997.]",protonated amine,water
2199,[NH3+][C@@H]1C[C@H]1c1ccc(Cl)cc1,O,0,0,8.11,[8.11],"[Hunt et al.. J. Chem. Inf. Model, 2020, 60 (6), 2989-2997.]",protonated amine,water
2200,Oc1c(Cl)c(Cl)c(Cl)c(Cl)c1Cl,O,0,0,4.74,"[4.74, 4.74]","[Hunt et al.. J. Chem. Inf. Model, 2020, 60 (6), 2989-2997. ,   Kutt et al., Eur. J. Org. Chem., 2021, 2021 (9), 1407-1419.]",phenol,water
2201,C/C(=N\O)C(C)(C)CCCCC[NH3+],O,0,0,9.12,[9.12],"[Hunt et al.. J. Chem. Inf. Model, 2020, 60 (6), 2989-2997.]",protonated amine,water
2202,CON(C)C(=O)c1c(Cn2c(C)[nH+]c(Cl)c2Cl)sc2c1c(=O)n(C)c(=O)n2CC(C)C,O,0,0,2.7,[2.7],"[Hunt et al.. J. Chem. Inf. Model, 2020, 60 (6), 2989-2997.]",protonated amine,water
2203,O=C(O)c1c(O)ccc2ccccc12,O,0,0,3.29,[3.29],"[Hunt et al.. J. Chem. Inf. Model, 2020, 60 (6), 2989-2997.]",carboxylic acid,water
2204,COC(=O)c1ccccc1S(=O)(=O)NC(=O)N(C)c1nc(C)nc(OC)n1,O,0,0,4.7,[4.7],"[Hunt et al.. J. Chem. Inf. Model, 2020, 60 (6), 2989-2997.]",amine,water
2205,c1ccc2[nH][nH+]cc2c1,O,-,1H-indazol-2-ium,1.25,"[1.25, 1.25]","[Lokov et al., Eur. J. Org. Chem., 2017, 30, 4475-4489., Tshepelvitsh et al., Eur. J. Org. Chem., 2019, 6735-6748.]",protonated amine,water
2206,O=C(CCS)O,O,0,0,10.27,[10.27],"[Hunt et al.. J. Chem. Inf. Model, 2020, 60 (6), 2989-2997.]",carboxylic acid,water
2207,Cc1cc(C)cc(O)c1,O,0,0,10.15,[10.15],"[Hunt et al.. J. Chem. Inf. Model, 2020, 60 (6), 2989-2997.]",phenol,water
2208,CC(C)[NH+](c1ccccc1)C(C)C,O,0,0,7.37,[7.37],"[Hunt et al.. J. Chem. Inf. Model, 2020, 60 (6), 2989-2997.]",protonated amine,water
2209,c1cnc[nH+]c1,CC#N,-,pyrimidin-1-ium,8.72,"[8.72, 8.72]","[Lokov et al., Eur. J. Org. Chem., 2017, 30, 4475-4489., Tshepelvitsh et al., Eur. J. Org. Chem., 2019, 6735-6748.]",protonated amine,acetonitrile
2210,CCOC(=O)C(C#N)c1c(C(F)(F)F)c(C(F)(F)F)c(C(F)(F)F)c(C(F)(F)F)c1C(F)(F)F,C(CCl)Cl,2226486-80-0,,47.8,[47.8],"[Paenurk et al., Chem. Sci., 2017, 8, 6964-6973.]",C-H acid,DCE
2211,C[C@@H]1COc2c(N3CC[NH+](C)CC3)c(F)cc3c(=O)c(C(=O)[O-])cn1c23,O,0,0,8.1,[8.1],"[Hunt et al.. J. Chem. Inf. Model, 2020, 60 (6), 2989-2997.]",protonated amine,water
2212,NS(=O)(=O)c1cccc([N+](=O)[O-])c1,CC#N,121-52-8,3-nitrobenzenesulfonamide,23.79,"[22.95, 24.63]","[Eckert et al., J. Comput. Chem., 2009, 30, 799-810., Kutt et al., Eur. J. Org. Chem., 2021, 2021 (9), 1407-1419.]",amine,acetonitrile
2213,O=S(=O)(NS(=O)(=O)C(F)(F)F)c1ccc(Cl)cc1,CC#N,174788-89-7,4-chloro-N-(trifluoromethylsulfonyl)benzenesulfonamide,5.126666667,"[5.02, 5.34, 5.02]","[Paenurk et al., Chem. Sci., 2017, 8, 6964-6973., Eckert et al., J. Comput. Chem., 2009, 30, 799-810.,  Kutt et al., J. Org. Chem., 2011, 76, 391-395.]",amine,acetonitrile
2214,[NH3+]c1cccc2cccc([N+](=O)[O-])c12,O,0,0,2.79,[2.79],"[Hunt et al.. J. Chem. Inf. Model, 2020, 60 (6), 2989-2997.]",protonated amine,water
2215,N#Cc1c(F)c(F)c(N)c(F)c1F,CC#N,17823-38-0,"4-amino-2,3,5,6-tetrafluorobenzonitrile",28.78,"[28.78, 28.78]","[Kutt et al., Eur. J. Org. Chem., 2021, 2021 (9), 1407-1419., Kutt et al., Eur. J. Org. Chem., 2021, 2021 (9), 1407-1419.]",amine,acetonitrile
2216,OCC[NH2+]CCO,O,0,0,8.883,[8.883],"[Hunt et al.. J. Chem. Inf. Model, 2020, 60 (6), 2989-2997.]",protonated amine,water
2217,NS(=O)(=O)c1ccccc1,CS(=O)C,98-10-2,benzenesulfonamide,16.1,[16.1],"[Kutt et al., Eur. J. Org. Chem., 2021, 2021 (9), 1407-1419.]",amine,DMSO
2218,C[C@H](CS)C(=O)N1CCC[C@H]1C(=O)O,O,0,0,3.45,[3.45],"[Hunt et al.. J. Chem. Inf. Model, 2020, 60 (6), 2989-2997.]",carboxylic acid,water
2219,[NH3+][C@H]1CCN(c2c(F)cc3c(=O)c(C(=O)[O-])cn(C4CC4)c3c2Cl)C1,O,0,0,9.1,[9.1],"[Hunt et al.. J. Chem. Inf. Model, 2020, 60 (6), 2989-2997.]",protonated amine,water
2220,C1C[NH2+]CCN1,CS(=O)C,8057-14-5,piperazin-1-ium,10.5,[10.5],"[Tshepelvitsh et al., Eur. J. Org. Chem., 2019, 6735-6748.]",protonated amine,DMSO
2221,[NH3+]c1ccc(Cl)c(Cl)c1,O,0,0,2.968,[2.968],"[Hunt et al.. J. Chem. Inf. Model, 2020, 60 (6), 2989-2997.]",protonated amine,water
2222,Oc1ccccc1-c1ccc(I)cc1,O,0,0,10.92,[10.92],"[Hunt et al.. J. Chem. Inf. Model, 2020, 60 (6), 2989-2997.]",phenol,water
2223,C[C@@]12CC[C@H]3c4ccc(O)cc4CC[C@@H]3[C@@H]1CC[C@@H]2O,O,0,0,10,[10.0],"[Hunt et al.. J. Chem. Inf. Model, 2020, 60 (6), 2989-2997.]",phenol,water
2224,O=S(=O)(N=C(NS(=O)(=O)C(F)(F)F)c1ccc(F)cc1)C(F)(F)F,CC#N,500721-93-7,"4-fluoro-N,N'-bis((trifluoromethyl)sulfonyl)benzimidamide",5.38,"[5.66, 5.33, 5.29, 5.29, 5.33]","[Eckert et al., J. Comput. Chem., 2009, 30, 799-810.,  Kutt et al., J. Org. Chem., 2011, 76, 391-395., Kutt et al., Eur. J. Org. Chem., 2021, 2021 (9), 1407-1419., Kutt et al., Eur. J. Org. Chem., 2021, 2021 (9), 1407-1419., Paenurk et al., Chem. Sci., 2017, 8, 6964-6973.]",amine,acetonitrile
2225,N#CC(C#N)S(=O)(=O)c1ccc([N+](=O)[O-])cc1,C(CCl)Cl,1207878-53-2,2-((4-nitrophenyl)sulfonyl)malononitrile,39.9,"[39.9, 39.9]","[Kutt et al., Eur. J. Org. Chem., 2021, 2021 (9), 1407-1419., Paenurk et al., Chem. Sci., 2017, 8, 6964-6973.]",C-H acid,DCE
2226,COC(=O)C[C@@](C)(C(=O)O)c1ccccc1,O,0,0,4.15,[4.15],"[Hunt et al.. J. Chem. Inf. Model, 2020, 60 (6), 2989-2997.]",carboxylic acid,water
2227,CCCC[C@@H](CC)CO[NH+](C[C@@H](C)O)C[C@@H](C)O,O,0,0,7.7,[7.7],"[Hunt et al.. J. Chem. Inf. Model, 2020, 60 (6), 2989-2997.]",protonated amine,water
2228,CC(=O)[C@H]([NH3+])C(=O)OCc1ccccc1,O,0,0,5.2,[5.2],"[Hunt et al.. J. Chem. Inf. Model, 2020, 60 (6), 2989-2997.]",protonated amine,water
2229,Cc1nc2ccccc2nc1O,O,0,0,9.9,[9.9],"[Hunt et al.. J. Chem. Inf. Model, 2020, 60 (6), 2989-2997.]",phenol,water