,Solute SMILES,Solvent SMILES,Solute CAS,Solute IUPAC,pKa (avg),pKa (all),Source (all),Acid type,Solvent name
1862,Nc1c([N+](=O)[O-])cc([N+](=O)[O-])cc1[N+](=O)[O-],CC#N,489-98-5,"2,4,6-trinitroaniline",23.87,"[23.87, 23.87]","[Kutt et al., Eur. J. Org. Chem., 2021, 2021 (9), 1407-1419., Kutt et al., Eur. J. Org. Chem., 2021, 2021 (9), 1407-1419.]",amine,acetonitrile
1863,Nc1ccc(N)[nH+]c1,O,0,0,6.48,[6.48],"[Hunt et al.. J. Chem. Inf. Model, 2020, 60 (6), 2989-2997.]",protonated amine,water
1864,COc1ccc(C(=O)O)c2ccccc12,O,0,0,4.31,[4.31],"[Hunt et al.. J. Chem. Inf. Model, 2020, 60 (6), 2989-2997.]",carboxylic acid,water
1865,C[C@H](CO)Nc1nc(SCc2ccccc2)nc2[nH]c(=O)sc12,O,0,0,7,[7.0],"[Hunt et al.. J. Chem. Inf. Model, 2020, 60 (6), 2989-2997.]",hydroxyl alcohol,water
1866,COC(=O)c1ccc([NH3+])cc1,O,0,0,2.465,[2.465],"[Hunt et al.. J. Chem. Inf. Model, 2020, 60 (6), 2989-2997.]",protonated amine,water
1867,CC(C)(O)c1ccccc1CC[C@@H](SCC1(CC(=O)O)CC1)c1cccc(/C=C/c2ccc3ccc(Cl)cc3[nH+]2)c1,O,0,0,5.6,[5.6],"[Hunt et al.. J. Chem. Inf. Model, 2020, 60 (6), 2989-2997.]",protonated amine,water
1868,I,CC#N,10034-85-2,iodane,2.8,"[2.8, 2.8, 2.8, 2.8, 2.8, 2.8]","[Kutt et al., Tetrahedron Lett., 2018.,  Kutt et al., J. Org. Chem., 2011, 76, 391-395., Paenurk et al., Chem. Sci., 2017, 8, 6964-6973., Kutt et al., Eur. J. Org. Chem., 2021, 2021 (9), 1407-1419., Kutt et al., Eur. J. Org. Chem., 2021, 2021 (9), 1407-1419., Paenurk et al., Chem. Sci., 2017, 8, 6964-6973.]",inorganic,acetonitrile
1869,N#CC(C#N)=C(C#N)NC(C#N)=C(C#N)C#N,C(CCl)Cl,2284-24-4,"2-(1,2,2-tricyanoethenylamino)ethene-1,1,2-tricarbonitrile",33,[33.0],"[Paenurk et al., Chem. Sci., 2017, 8, 6964-6973.]",amine,DCE
1870,[NH3+]c1ccc(C2CCCC2)cc1,O,0,0,5.1,[5.1],"[Hunt et al.. J. Chem. Inf. Model, 2020, 60 (6), 2989-2997.]",protonated amine,water
1871,c1c[nH+]ccn1,C1CCOC1,-,pyrazin-1-ium,1.4,[1.4],"[Tshepelvitsh et al., Eur. J. Org. Chem., 2019, 6735-6748.]",protonated amine,THF
1872,CC[NH+](CC)c1ccc([N+](=O)[O-])cc1[N+](=O)[O-],O,0,0,0.18,[0.18],"[Hunt et al.. J. Chem. Inf. Model, 2020, 60 (6), 2989-2997.]",protonated amine,water
1873,CCCC[NH2+]c1ccccc1,O,0,0,5.12,[5.12],"[Hunt et al.. J. Chem. Inf. Model, 2020, 60 (6), 2989-2997.]",protonated amine,water
1874,CCOc1cccc(O)c1,O,0,0,9.655,[9.655],"[Hunt et al.. J. Chem. Inf. Model, 2020, 60 (6), 2989-2997.]",phenol,water
1875,c1c[nH+]c2[nH]ccc2c1,O,0,0,4.5,[4.5],"[Hunt et al.. J. Chem. Inf. Model, 2020, 60 (6), 2989-2997.]",protonated amine,water
1876,O=C(O)c1ccccc1C(=O)Nc1ccccc1,O,0,0,2.5,[2.5],"[Hunt et al.. J. Chem. Inf. Model, 2020, 60 (6), 2989-2997.]",carboxylic acid,water
1877,CC1CC[NH+]([C@@H](C)C=C(c2cccs2)c2cccs2)CC1,O,0,0,8.15,[8.15],"[Hunt et al.. J. Chem. Inf. Model, 2020, 60 (6), 2989-2997.]",protonated amine,water
1878,COc1ccc([C@@H](O)C[NH2+]C(C)C)cc1,O,0,0,9.26,[9.26],"[Hunt et al.. J. Chem. Inf. Model, 2020, 60 (6), 2989-2997.]",protonated amine,water
1879,CN(C)C(=N)[NH+](C)C,O,-,"(N,N-dimethylcarbamimidoyl)-dimethylazanium",13.3,"[13.6, 13.0]","[Kutt et al., Tetrahedron Lett., 2018., Tshepelvitsh et al., Eur. J. Org. Chem., 2019, 6735-6748.]",protonated amine,water
1880,C[NH2+]C,CC#N,49784-85-2,dimethylazanium,19.03,[19.03],"[Tshepelvitsh et al., Eur. J. Org. Chem., 2019, 6735-6748.]",protonated amine,acetonitrile
1881,N#CC(C#N)c1cccc(C(F)(F)F)c1,C(CCl)Cl,99726-60-0,2-[3-(trifluoromethyl)phenyl]propanedinitrile,49,"[49.0, 49.0]","[Kutt et al., Eur. J. Org. Chem., 2021, 2021 (9), 1407-1419., Paenurk et al., Chem. Sci., 2017, 8, 6964-6973.]",C-H acid,DCE
1882,O=C(O)/C=C/Cl,O,0,0,3.79,[3.79],"[Hunt et al.. J. Chem. Inf. Model, 2020, 60 (6), 2989-2997.]",carboxylic acid,water
1883,C[NH2+]c1ccc(Cl)cc1,O,0,0,3.9,[3.9],"[Hunt et al.. J. Chem. Inf. Model, 2020, 60 (6), 2989-2997.]",protonated amine,water
1884,CCOC(=O)C(C#N)c1c(F)c(F)c(C(F)(F)F)c(F)c1F,C(CCl)Cl,32251-53-9,"ethyl 2-cyano-2-[2,3,5,6-tetrafluoro-4-(trifluoromethyl)phenyl]acetate",50.6,"[50.6, 50.6]","[Kutt et al., Eur. J. Org. Chem., 2021, 2021 (9), 1407-1419., Paenurk et al., Chem. Sci., 2017, 8, 6964-6973.]",C-H acid,DCE
1885,CC(C)(C)c1cc(C=O)cc(C(C)(C)C)c1O,O,0,0,8.05,[8.05],"[Hunt et al.. J. Chem. Inf. Model, 2020, 60 (6), 2989-2997.]",phenol,water
1886,CCOc1ccc(OCC)c([NH3+])c1,O,0,0,3.94,[3.94],"[Hunt et al.. J. Chem. Inf. Model, 2020, 60 (6), 2989-2997.]",protonated amine,water
1887,N[NH3+],C1CCOC1,18500-32-8,aminoazanium,13.5,[13.5],"[Tshepelvitsh et al., Eur. J. Org. Chem., 2019, 6735-6748.]",inorganic,THF
1888,CCc1cc2c(O)ccc(CC)c2s1,O,0,0,9.56,[9.56],"[Hunt et al.. J. Chem. Inf. Model, 2020, 60 (6), 2989-2997.]",phenol,water
1889,CC(=O)CCCC(=O)O,O,0,0,4.66,[4.66],"[Hunt et al.. J. Chem. Inf. Model, 2020, 60 (6), 2989-2997.]",carboxylic acid,water
1890,O=[N+]([O-])c1c[nH]c2ccccc12,CC#N,4770-03-0,3-nitro-1H-indole,22.77,"[22.77, 22.77]","[Kutt et al., Eur. J. Org. Chem., 2021, 2021 (9), 1407-1419., Kutt et al., Eur. J. Org. Chem., 2021, 2021 (9), 1407-1419.]",amine,acetonitrile
1891,c1c[nH][nH+]c1,CC#N,,1H-pyrazol-2-ium,9.1,"[9.1, 9.1]","[Lokov et al., Eur. J. Org. Chem., 2017, 30, 4475-4489., Tshepelvitsh et al., Eur. J. Org. Chem., 2019, 6735-6748.]",protonated amine,acetonitrile
1892,Oc1ccccc1,CS(=O)C,108-95-2,phenol,18,[18.0],"[Kutt et al., Eur. J. Org. Chem., 2021, 2021 (9), 1407-1419.]",phenol,DMSO
1893,c1ccc2[nH+][nH]nc2c1,O,-,2H-benzotriazol-1-ium,0.42,"[0.42, 0.42]","[Lokov et al., Eur. J. Org. Chem., 2017, 30, 4475-4489., Tshepelvitsh et al., Eur. J. Org. Chem., 2019, 6735-6748.]",protonated amine,water
1894,C[C@](C#N)(C(=O)O)c1ccccc1,O,0,0,2.29,[2.29],"[Hunt et al.. J. Chem. Inf. Model, 2020, 60 (6), 2989-2997.]",carboxylic acid,water
1895,O=S(=O)(NS(=O)(=O)c1c(F)c(F)c(F)c(F)c1F)c1c(F)c(F)c(F)c(F)c1F,CC#N,1535-93-9,"2,3,4,5,6-pentafluoro-N-(2,3,4,5,6-pentafluorophenyl)sulfonylbenzenesulfonamide",5.11,"[5.11, 5.11]","[ Kutt et al., J. Org. Chem., 2011, 76, 391-395., Paenurk et al., Chem. Sci., 2017, 8, 6964-6973.]",amine,acetonitrile
1896,CC(C)c1ccc(Br)c(=O)c(O)c1,O,0,0,4.28,[4.28],"[Hunt et al.. J. Chem. Inf. Model, 2020, 60 (6), 2989-2997.]",phenol,water
1897,C[NH+](C)c1ccc([N+](=O)[O-])cc1,O,0,0,0.607,[0.607],"[Hunt et al.. J. Chem. Inf. Model, 2020, 60 (6), 2989-2997.]",protonated amine,water
1898,CCc1cc(C(C)C)c(O)cc1C,O,0,0,10.01,[10.01],"[Hunt et al.. J. Chem. Inf. Model, 2020, 60 (6), 2989-2997.]",phenol,water
1899,Cc1ccc(C[NH2+]c2ccc([N+](=O)[O-])cc2[N+](=O)[O-])cc1,O,0,0,-4.7,[-4.7],"[Hunt et al.. J. Chem. Inf. Model, 2020, 60 (6), 2989-2997.]",protonated amine,water
1900,O=S(=O)(N=P1(NP2(=NS(=O)(=O)C(F)(F)F)Oc3c(-c4ccccc4)cc4ccccc4c3-c3c(c(-c4ccccc4)cc4ccccc34)O2)OC2=C(c3ccccc3)CC3C=CC=CC3=C2c2c(c(-c3ccccc3)cc3ccccc23)O1)C(F)(F)F,CC#N,2016814-95-0,,4.5,[4.5],"[Paenurk et al., Chem. Sci., 2017, 8, 6964-6973.]",amine,acetonitrile
1901,Cc1cccc(N)[nH+]1,O,0,0,7.41,[7.41],"[Hunt et al.. J. Chem. Inf. Model, 2020, 60 (6), 2989-2997.]",protonated amine,water
1902,Oc1ccc(Cl)cc1,O,0,0,9.42,[9.42],"[Hunt et al.. J. Chem. Inf. Model, 2020, 60 (6), 2989-2997.]",phenol,water
1903,N#Cc1ccc(C[NH3+])cc1,O,0,0,8.52,[8.52],"[Hunt et al.. J. Chem. Inf. Model, 2020, 60 (6), 2989-2997.]",protonated amine,water
1904,C[NH+](C)CCCN1c2ccccc2CCc2ccccc21,O,0,0,9.525,"[9.6, 9.45]","[Hunt et al.. J. Chem. Inf. Model, 2020, 60 (6), 2989-2997., Hunt et al.. J. Chem. Inf. Model, 2020, 60 (6), 2989-2997.]",protonated amine,water
1905,CCOc1ccccc1OS(=O)(=O)NC(=O)Nc1nc(OC)cc(OC)n1,O,0,0,5.28,[5.28],"[Hunt et al.. J. Chem. Inf. Model, 2020, 60 (6), 2989-2997.]",amine,water
1906,CS(=O)(=O)NC(=O)CCCc1c(-c2ccc(F)cc2)[nH]c2ccc(C#N)cc12,O,0,0,5.2,[5.2],"[Hunt et al.. J. Chem. Inf. Model, 2020, 60 (6), 2989-2997.]",amine,water
1907,COc1ccc(C[NH3+])cc1,O,0,0,9.47,[9.47],"[Hunt et al.. J. Chem. Inf. Model, 2020, 60 (6), 2989-2997.]",protonated amine,water
1908,COc1ccc([C@H](C[NH+](C)C)C2(O)CCCCC2)cc1,O,0,0,9.64,[9.64],"[Hunt et al.. J. Chem. Inf. Model, 2020, 60 (6), 2989-2997.]",protonated amine,water
1909,COC(=O)c1cc(O)c(O)c(O)c1C[NH+](C)C,O,0,0,6.8,[6.8],"[Hunt et al.. J. Chem. Inf. Model, 2020, 60 (6), 2989-2997.]",protonated amine,water
1910,CCCCOc1ccc([C@H](C)[NH3+])cc1,O,0,0,9.45,[9.45],"[Hunt et al.. J. Chem. Inf. Model, 2020, 60 (6), 2989-2997.]",protonated amine,water
1911,C=CCS,O,0,0,9.96,[9.96],"[Hunt et al.. J. Chem. Inf. Model, 2020, 60 (6), 2989-2997.]",thiol,water
1912,CC(C)[NH3+],CS(=O)C,,propan-2-ylazanium,10.9,[10.9],"[Tshepelvitsh et al., Eur. J. Org. Chem., 2019, 6735-6748.]",protonated amine,DMSO
1913,NS(=O)(=O)c1ccccc1,CN(C)C=O,98-10-2,benzenesulfonamide,17.06,[17.06],"[Kutt et al., Eur. J. Org. Chem., 2021, 2021 (9), 1407-1419.]",amine,DMF
1914,[NH3+]c1cccc(C(F)(F)F)c1,O,0,0,3.49,[3.49],"[Hunt et al.. J. Chem. Inf. Model, 2020, 60 (6), 2989-2997.]",protonated amine,water
1915,CC(C)(C)c1ccc(O)c(C(C)(C)C)c1,O,0,0,11.72,[11.72],"[Hunt et al.. J. Chem. Inf. Model, 2020, 60 (6), 2989-2997.]",phenol,water
1916,CS(=O)(=O)CCS,O,0,0,7.9,[7.9],"[Hunt et al.. J. Chem. Inf. Model, 2020, 60 (6), 2989-2997.]",thiol,water
1917,[NH3+]c1cc(I)cc([N+](=O)[O-])c1,O,0,0,1.44,[1.44],"[Hunt et al.. J. Chem. Inf. Model, 2020, 60 (6), 2989-2997.]",protonated amine,water
1918,O=C(O)[C@H](O)C(Cl)(Cl)Cl,O,0,0,2.34,[2.34],"[Hunt et al.. J. Chem. Inf. Model, 2020, 60 (6), 2989-2997.]",carboxylic acid,water
1919,CCc1nc2c(C)cc(C)[nH+]c2[nH]1,O,0,0,5.5,[5.5],"[Hunt et al.. J. Chem. Inf. Model, 2020, 60 (6), 2989-2997.]",protonated amine,water
1920,O=C(O)/C=C\C(O)=O,O,0,0,6.25,[6.25],"[Hunt et al.. J. Chem. Inf. Model, 2020, 60 (6), 2989-2997.]",carboxylic acid,water
1921,CCCC[NH+](C[C@@H](C)O)C[C@@H](C)O,O,0,0,9.3,[9.3],"[Hunt et al.. J. Chem. Inf. Model, 2020, 60 (6), 2989-2997.]",protonated amine,water
1922,C[NH2+]C[C@H](O)c1cccc(O)c1,O,0,0,8.86,[8.86],"[Hunt et al.. J. Chem. Inf. Model, 2020, 60 (6), 2989-2997.]",protonated amine,water
1923,Oc1ccc(Cl)c2cccnc12,O,0,0,9.05,[9.05],"[Hunt et al.. J. Chem. Inf. Model, 2020, 60 (6), 2989-2997.]",phenol,water
1924,O=S(=O)(O)F,CC#N,7789-21-1,sulfurofluoridic acid,3.38,[3.38],"[Eckert et al., J. Comput. Chem., 2009, 30, 799-810.]",inorganic,acetonitrile
1925,O=[N+]([O-])c1cc([N+](=O)[O-])c(O)c([N+](=O)[O-])c1,CC#N,88-89-1,"2,4,6-trinitrophenol",11,"[11.0, 11.0, 11.0, 11.0, 11.0, 11.0, 11.0]","[Eckert et al., J. Comput. Chem., 2009, 30, 799-810., Kutt et al., Tetrahedron Lett., 2018.,  Kutt et al., J. Org. Chem., 2011, 76, 391-395., Paenurk et al., Chem. Sci., 2017, 8, 6964-6973., Kutt et al., Eur. J. Org. Chem., 2021, 2021 (9), 1407-1419., Kutt et al., Eur. J. Org. Chem., 2021, 2021 (9), 1407-1419., Paenurk et al., Chem. Sci., 2017, 8, 6964-6973.]",phenol,acetonitrile
1926,Oc1ccccc1Br,CC#N,95-56-7,2-bromophenol,23.92,[23.92],"[Eckert et al., J. Comput. Chem., 2009, 30, 799-810.]",phenol,acetonitrile
1927,N#Cc1cc(F)c(Cl)cc1O[C@H](CC[NH3+])c1ccccc1,O,0,0,9.6,[9.6],"[Hunt et al.. J. Chem. Inf. Model, 2020, 60 (6), 2989-2997.]",protonated amine,water
1928,O=C(NO)c1ccc(Cl)cc1,O,0,0,9.59,[9.59],"[Hunt et al.. J. Chem. Inf. Model, 2020, 60 (6), 2989-2997.]",amine,water
1929,Oc1ccccc1C(F)(F)F,CC#N,444-30-4,2-(trifluoromethyl)phenol,24.89,"[24.88, 24.9, 24.9, 24.88]","[Eckert et al., J. Comput. Chem., 2009, 30, 799-810., Kutt et al., Eur. J. Org. Chem., 2021, 2021 (9), 1407-1419., Kutt et al., Eur. J. Org. Chem., 2021, 2021 (9), 1407-1419., Paenurk et al., Chem. Sci., 2017, 8, 6964-6973.]",phenol,acetonitrile
1930,O=[S@@](Cc1cccc[nH+]1)c1nc2ccccc2[nH]1,O,0,0,3.1,[3.1],"[Hunt et al.. J. Chem. Inf. Model, 2020, 60 (6), 2989-2997.]",protonated amine,water
1931,COC(=O)c1ccccc1S(=O)(=O)NC(=O)Nc1nc(C)nc(OC)n1,O,0,0,3.8,[3.8],"[Hunt et al.. J. Chem. Inf. Model, 2020, 60 (6), 2989-2997.]",amine,water
1932,Cc1cc(Br)cc(C)c1[NH+](C)C,O,0,0,4.36,[4.36],"[Hunt et al.. J. Chem. Inf. Model, 2020, 60 (6), 2989-2997.]",protonated amine,water
1933,C[C@@H](O)C[NH+](Cc1ccccc1)C[C@@H](C)O,O,0,0,7.5,[7.5],"[Hunt et al.. J. Chem. Inf. Model, 2020, 60 (6), 2989-2997.]",protonated amine,water
1934,COc1cccc(C(=O)O)c1CO,O,0,0,3.58,[3.58],"[Hunt et al.. J. Chem. Inf. Model, 2020, 60 (6), 2989-2997.]",carboxylic acid,water
1935,c1ccc([NH+](c2ccccc2)c2ccccc2)cc1,O,-,triphenylazanium,-3.91,[-3.91],"[Tshepelvitsh et al., Eur. J. Org. Chem., 2019, 6735-6748.]",protonated amine,water
1936,Cc1c(F)c(F)c(Nc2c(F)c(F)c(F)c(F)c2F)c(F)c1F,CS(=O)C,80588-36-9,"2,3,5,6-tetrafluoro-4-methyl-N-(2,3,4,5,6-pentafluorophenyl)aniline",12.3,[12.3],"[Kutt et al., Eur. J. Org. Chem., 2021, 2021 (9), 1407-1419.]",amine,DMSO
1937,[NH2+]=C(c1ccccc1)c1ccc(O)cc1,O,0,0,6.45,[6.45],"[Hunt et al.. J. Chem. Inf. Model, 2020, 60 (6), 2989-2997.]",protonated amine,water
1938,OC1(c2c(F)c(F)c(F)c(F)c2F)C(F)(F)C(F)(F)C(F)(F)C(F)(F)C1(F)F,CC#N,217825-01-9,"2,2,3,3,4,4,5,5,6,6-decafluoro-1-(2,3,4,5,6-pentafluorophenyl)cyclohexan-1-ol",22,[22.0],"[Paenurk et al., Chem. Sci., 2017, 8, 6964-6973.]",hydroxyl alcohol,acetonitrile
1939,C[NH+](C)c1ccccc1,CC#N,-,dimethyl(phenyl)azanium,11.45,"[11.43, 11.47]","[Lokov et al., Eur. J. Org. Chem., 2017, 30, 4475-4489., Tshepelvitsh et al., Eur. J. Org. Chem., 2019, 6735-6748.]",protonated amine,acetonitrile
1940,CCC[NH+](CC)CC,O,-,diethyl(propyl)azanium,10.5,[10.5],"[Tshepelvitsh et al., Eur. J. Org. Chem., 2019, 6735-6748.]",protonated amine,water
1941,CNc1nc(C)cc(C)[nH+]1,O,0,0,5.23,[5.23],"[Hunt et al.. J. Chem. Inf. Model, 2020, 60 (6), 2989-2997.]",protonated amine,water
1942,O=[N+]([O-])c1cccc(S(=O)(=O)NS(=O)(=O)c2c(F)c(F)c(F)c(F)c2F)c1,CC#N,1171188-92-3,"2,3,4,5,6-pentafluoro-N-((3-nitrophenyl)sulfonyl)benzenesulfonamide",6.705,"[6.73, 6.68, 6.68, 6.73]","[ Kutt et al., J. Org. Chem., 2011, 76, 391-395., Kutt et al., Eur. J. Org. Chem., 2021, 2021 (9), 1407-1419., Kutt et al., Eur. J. Org. Chem., 2021, 2021 (9), 1407-1419., Paenurk et al., Chem. Sci., 2017, 8, 6964-6973.]",amine,acetonitrile
1943,C[N@H+]1CCCC(C)(C)C1,O,0,0,9.77,[9.77],"[Hunt et al.. J. Chem. Inf. Model, 2020, 60 (6), 2989-2997.]",protonated amine,water
1944,C[N@H+]1CCO[C@@H](c2ccccc2)c2ccccc2C1,O,0,0,8.9,"[8.5, 9.3]","[Hunt et al.. J. Chem. Inf. Model, 2020, 60 (6), 2989-2997., Hunt et al.. J. Chem. Inf. Model, 2020, 60 (6), 2989-2997.]",protonated amine,water
1945,[NH3+]CC(F)(F)F,O,0,0,5.7,[5.7],"[Hunt et al.. J. Chem. Inf. Model, 2020, 60 (6), 2989-2997.]",protonated amine,water
1946,CC1=CNC(=O)[NH2+]C1=O,CC#N,,"5-methyl-1H-pyrimidin-3-ium-2,4-dione",2.7,[2.7],"[Lokov et al., Eur. J. Org. Chem., 2017, 30, 4475-4489.]",protonated amine,acetonitrile
1947,COC(=O)c1sccc1S(=O)(=O)NC(=O)Nc1nc(C)nc(OC)n1,O,0,0,4,[4.0],"[Hunt et al.. J. Chem. Inf. Model, 2020, 60 (6), 2989-2997.]",amine,water
1948,[NH3+]Cc1ccc([N+](=O)[O-])cc1,O,0,0,8.5,[8.5],"[Hunt et al.. J. Chem. Inf. Model, 2020, 60 (6), 2989-2997.]",protonated amine,water
1949,O=C(O)CCl,O,0,0,2.87,[2.87],"[Hunt et al.. J. Chem. Inf. Model, 2020, 60 (6), 2989-2997.]",carboxylic acid,water
1950,COc1ccc2c3c1O[C@H]1[C@@H](O)C=C[C@H]4[C@@H](C2)[N@@H+](C)CC[C@]314,O,0,0,8.15,"[8.1, 8.2]","[Hunt et al.. J. Chem. Inf. Model, 2020, 60 (6), 2989-2997., Hunt et al.. J. Chem. Inf. Model, 2020, 60 (6), 2989-2997.]",protonated amine,water
1951,Cc1ccc(/C=C/C(=O)O)cc1,O,0,0,4.56,[4.56],"[Hunt et al.. J. Chem. Inf. Model, 2020, 60 (6), 2989-2997.]",carboxylic acid,water
1952,Oc1cc(C(F)(F)F)cc(C(F)(F)F)c1,CS(=O)C,349-58-6,"3,5-bis(trifluoromethyl)phenol",13.2,[13.2],"[Kutt et al., Eur. J. Org. Chem., 2021, 2021 (9), 1407-1419.]",phenol,DMSO
1953,N#CC(c1c(F)c(F)c(F)c(F)c1F)c1c(F)c(F)c(F)c(F)c1F,C(CCl)Cl,42238-34-6,"2,2-bis(2,3,4,5,6-pentafluorophenyl)acetonitrile",55.7,[55.7],"[Kutt et al., Tetrahedron Lett., 2018.]",C-H acid,DCE
1954,CC(C)c1cccc(=O)c(O)c1,O,0,0,7.21,[7.21],"[Hunt et al.. J. Chem. Inf. Model, 2020, 60 (6), 2989-2997.]",phenol,water
1955,c1ccc2[nH+]cccc2c1,CC#N,-,quinolin-1-ium,11.965,"[11.96, 11.97]","[Lokov et al., Eur. J. Org. Chem., 2017, 30, 4475-4489., Tshepelvitsh et al., Eur. J. Org. Chem., 2019, 6735-6748.]",protonated amine,acetonitrile
1956,[NH3+]CCS,O,0,0,8.3,[8.3],"[Hunt et al.. J. Chem. Inf. Model, 2020, 60 (6), 2989-2997.]",protonated amine,water
1957,O=S(=O)(Nc1ccccc1)c1ccccc1,O,0,0,8.31,[8.31],"[Hunt et al.. J. Chem. Inf. Model, 2020, 60 (6), 2989-2997.]",amine,water
1958,CC(C)C1CC[NH2+]CC1,O,0,0,10.85,[10.85],"[Hunt et al.. J. Chem. Inf. Model, 2020, 60 (6), 2989-2997.]",protonated amine,water
1959,CC1(C)C[NH2+]1,O,0,0,8.64,[8.64],"[Hunt et al.. J. Chem. Inf. Model, 2020, 60 (6), 2989-2997.]",protonated amine,water
1960,C1=C[NH2+]C=N1,CC#N,-,1H-imidazol-1-ium,15.06,"[15.05, 15.07]","[Lokov et al., Eur. J. Org. Chem., 2017, 30, 4475-4489., Tshepelvitsh et al., Eur. J. Org. Chem., 2019, 6735-6748.]",protonated amine,acetonitrile
1961,[NH3+]C(CCc1ccccc1)CCc1ccccc1,O,0,0,8.8,[8.8],"[Hunt et al.. J. Chem. Inf. Model, 2020, 60 (6), 2989-2997.]",protonated amine,water
1962,CC(C)C[NH3+],CS(=O)C,58471-06-0,2-methylpropylazanium,10.9,[10.9],"[Tshepelvitsh et al., Eur. J. Org. Chem., 2019, 6735-6748.]",protonated amine,DMSO
1963,COC(=O)[C@@H]1C[NH+]2CCC1CC2,O,0,0,9.4,[9.4],"[Hunt et al.. J. Chem. Inf. Model, 2020, 60 (6), 2989-2997.]",protonated amine,water
1964,O=[N+]([O-])c1cccc(O)c1[N+](=O)[O-],O,0,0,4.96,[4.96],"[Hunt et al.. J. Chem. Inf. Model, 2020, 60 (6), 2989-2997.]",phenol,water
1965,[NH3+]c1ccccc1,CC#N,65756-50-5,phenylazanium,10.62666667,"[10.62, 10.62, 10.64]","[Kutt et al., Tetrahedron Lett., 2018., Lokov et al., Eur. J. Org. Chem., 2017, 30, 4475-4489., Tshepelvitsh et al., Eur. J. Org. Chem., 2019, 6735-6748.]",protonated amine,acetonitrile
1966,[NH3+]CCCCCBr,O,0,0,9.62,[9.62],"[Hunt et al.. J. Chem. Inf. Model, 2020, 60 (6), 2989-2997.]",protonated amine,water
1967,CN(C)CCC[NH+](C)C,C1CCOC1,-,3-(dimethylamino)propyl-dimethylazanium,13,[13.0],"[Tshepelvitsh et al., Eur. J. Org. Chem., 2019, 6735-6748.]",protonated amine,THF
1968,CC(=O)OCC[NH+](C)C,O,0,0,8.4,[8.4],"[Hunt et al.. J. Chem. Inf. Model, 2020, 60 (6), 2989-2997.]",protonated amine,water
1969,COc1ccccc1[NH3+],O,0,0,4.52,[4.52],"[Hunt et al.. J. Chem. Inf. Model, 2020, 60 (6), 2989-2997.]",protonated amine,water
1970,Cc1c(F)c(F)c(C(C#N)c2c(F)c(F)c(F)c(F)c2F)c(F)c1F,C(CCl)Cl,52345-34-3,"2-(2,3,4,5,6-pentafluorophenyl)-2-(2,3,5,6-tetrafluoro-4-methylphenyl)acetonitrile",56.7,[56.7],"[Paenurk et al., Chem. Sci., 2017, 8, 6964-6973.]",C-H acid,DCE
1971,CC[NH+](CC)CCCCCC#N,O,0,0,10.46,[10.46],"[Hunt et al.. J. Chem. Inf. Model, 2020, 60 (6), 2989-2997.]",protonated amine,water
1972,CSc1cc(Cl)c([NH3+])c(Cl)c1,O,0,0,0.35,[0.35],"[Hunt et al.. J. Chem. Inf. Model, 2020, 60 (6), 2989-2997.]",protonated amine,water
1973,C[NH+](C)C,O,,trimethylazanium,9.78,"[9.76, 9.8]","[Tshepelvitsh et al., Eur. J. Org. Chem., 2019, 6735-6748. ,   Hunt et al.. J. Chem. Inf. Model, 2020, 60 (6), 2989-2997.]",protonated amine,water
1974,Cc1cc([N+](=O)[O-])cc(C)c1[NH3+],O,0,0,0.98,[0.98],"[Hunt et al.. J. Chem. Inf. Model, 2020, 60 (6), 2989-2997.]",protonated amine,water
1975,OC(c1c(F)c(F)c(F)c(F)c1F)(C(F)(F)F)C(F)(F)F,CC#N,13732-52-0,"1,1,1,3,3,3-hexafluoro-2-(2,3,4,5,6-pentafluorophenyl)propan-2-ol",22.15,[22.15],"[Paenurk et al., Chem. Sci., 2017, 8, 6964-6973.]",hydroxyl alcohol,acetonitrile
1976,COc1ccc(CC(=O)O)cc1OC,O,0,0,4.33,[4.33],"[Hunt et al.. J. Chem. Inf. Model, 2020, 60 (6), 2989-2997.]",carboxylic acid,water
1977,CC1(C)S[C@H]2[C@H](NC(=O)Cc3ccccc3)C(=O)N2[C@@H]1C(=O)O,O,0,0,2.72,[2.72],"[Hunt et al.. J. Chem. Inf. Model, 2020, 60 (6), 2989-2997.]",carboxylic acid,water
1978,CC(C)[NH2+]C[C@H](O)c1ccc(Br)c(Br)c1,O,0,0,9.29,[9.29],"[Hunt et al.. J. Chem. Inf. Model, 2020, 60 (6), 2989-2997.]",protonated amine,water
1979,O=[N+]([O-])c1ccc(S(=O)(=O)NS(=O)(=O)C(F)(F)F)cc1,C(CCl)Cl,174788-91-1,4-nitro-N-(trifluoromethylsulfonyl)benzenesulfonamide,37.1,"[37.1, 37.1]","[Kutt et al., Eur. J. Org. Chem., 2021, 2021 (9), 1407-1419., Paenurk et al., Chem. Sci., 2017, 8, 6964-6973.]",amine,DCE
1980,Oc1ncc2ccccc2n1,O,0,0,10.73,[10.73],"[Hunt et al.. J. Chem. Inf. Model, 2020, 60 (6), 2989-2997.]",hydroxyl alcohol,water
1981,CCCC[NH2+]CCCC,CS(=O)C,-,dibutylazanium,10,[10.0],"[Tshepelvitsh et al., Eur. J. Org. Chem., 2019, 6735-6748.]",protonated amine,DMSO