,Solute SMILES,Solvent SMILES,Solute CAS,Solute IUPAC,pKa (avg),pKa (all),Source (all),Acid type,Solvent name
505,O=S(=O)(O)c1ccc(Cl)cc1,CC#N,98-66-8,4-chlorobenzenesulfonic acid,7.1425,"[7.16, 7.21, 7.0, 7.2]","[Eckert et al., J. Comput. Chem., 2009, 30, 799-810.,  Kutt et al., J. Org. Chem., 2011, 76, 391-395., Kutt et al., Eur. J. Org. Chem., 2021, 2021 (9), 1407-1419., Paenurk et al., Chem. Sci., 2017, 8, 6964-6973.]",sulfonic acid,acetonitrile
506,CCCCCCCC[N@@H+](CC[N+]1(C)CCCCC1)c1ccccc1,O,0,0,3.32,[3.32],"[Hunt et al.. J. Chem. Inf. Model, 2020, 60 (6), 2989-2997.]",protonated amine,water
507,COc1ccc([NH+](C)C)cc1,O,0,0,5.854,[5.854],"[Hunt et al.. J. Chem. Inf. Model, 2020, 60 (6), 2989-2997.]",protonated amine,water
508,O=C1c2ccccc2C(=O)N1O,O,0,0,6.5,[6.5],"[Hunt et al.. J. Chem. Inf. Model, 2020, 60 (6), 2989-2997.]",acidic hydroxyl,water
509,SCc1ccccn1,O,0,0,8.82,[8.82],"[Hunt et al.. J. Chem. Inf. Model, 2020, 60 (6), 2989-2997.]",thiol,water
510,Cc1ccc(C(=O)N2C[C@H]3C[NH2+]C[C@@H](C2)O3)cc1NC(=O)CC12CC3CC(CC(C3)C1)C2,O,0,0,7.18,[7.18],"[Hunt et al.. J. Chem. Inf. Model, 2020, 60 (6), 2989-2997.]",protonated amine,water
511,Cc1cc(Br)ccc1C(=O)O,O,0,0,3.77,[3.77],"[Hunt et al.. J. Chem. Inf. Model, 2020, 60 (6), 2989-2997.]",carboxylic acid,water
512,COc1cc(OC)nc(NC(=O)NS(=O)(=O)c2c(-c3nnn(C)n3)cnn2C)n1,O,0,0,3.6,[3.6],"[Hunt et al.. J. Chem. Inf. Model, 2020, 60 (6), 2989-2997.]",amine,water
513,CCn1cc(C(=O)O)c(=O)c2cc(F)c(N3CCNCC3)nc21,O,0,0,6.2,[6.2],"[Hunt et al.. J. Chem. Inf. Model, 2020, 60 (6), 2989-2997.]",carboxylic acid,water
514,CC1=C(C)C(C)(C)[NH2+]C1(C)C,O,0,0,10.5,[10.5],"[Hunt et al.. J. Chem. Inf. Model, 2020, 60 (6), 2989-2997.]",protonated amine,water
515,Cc1ccc([NH3+])cc1Br,O,0,0,3.98,[3.98],"[Hunt et al.. J. Chem. Inf. Model, 2020, 60 (6), 2989-2997.]",protonated amine,water
516,[NH3+][C@H]1CCCC[C@@H]1Cl,O,0,0,9.49,[9.49],"[Hunt et al.. J. Chem. Inf. Model, 2020, 60 (6), 2989-2997.]",protonated amine,water
517,C1CN=C2CCC[NH+]2C1,O,-,"3,4,5,6,7,8-hexahydro-2H-pyrrolo[1,2-a]pyrimidin-5-ium",13.5,[13.5],"[Tshepelvitsh et al., Eur. J. Org. Chem., 2019, 6735-6748.]",protonated amine,water
518,O=C(O)c1cc(/N=N/c2ccc(Cl)cc2)ccc1O,O,0,0,2.5,[2.5],"[Hunt et al.. J. Chem. Inf. Model, 2020, 60 (6), 2989-2997.]",carboxylic acid,water
519,[O-][Cl+3]([O-])([O-])O,O,7601-90-3,perchloric acid,-15.2,[-15.2],"[Kutt et al., Tetrahedron Lett., 2018.]",inorganic,water
520,C[NH+](C)CCCN1c2ccccc2Sc2ccccc21,O,0,0,9.4,[9.4],"[Hunt et al.. J. Chem. Inf. Model, 2020, 60 (6), 2989-2997.]",protonated amine,water
521,O=C(O)C(F)(F)Cl,O,0,0,0.46,[0.46],"[Hunt et al.. J. Chem. Inf. Model, 2020, 60 (6), 2989-2997.]",carboxylic acid,water
522,OC(C(F)(F)F)(C(F)(F)F)C(F)(F)F,CS(=O)C,1/2/78,"1,1,1,3,3,3-hexafluoro-2-(trifluoromethyl)propan-2-ol",10.7,[10.7],"[Kutt et al., Eur. J. Org. Chem., 2021, 2021 (9), 1407-1419.]",hydroxyl alcohol,DMSO
523,[NH3+]CCCCO,O,0,0,10.35,[10.35],"[Hunt et al.. J. Chem. Inf. Model, 2020, 60 (6), 2989-2997.]",protonated amine,water
524,CC[C@@H]([NH3+])C(=O)OC,O,0,0,7.64,[7.64],"[Hunt et al.. J. Chem. Inf. Model, 2020, 60 (6), 2989-2997.]",protonated amine,water
525,[NH3+]c1ccc(C(F)(F)F)cc1,CC#N,,(4-(trifluoromethyl)phenyl)azanium,8.03,[8.03],"[Lokov et al., Eur. J. Org. Chem., 2017, 30, 4475-4489.]",protonated amine,acetonitrile
526,O=[N+]([O-])c1cc2c(c([N+](=O)[O-])c1)Nc1c(cc([N+](=O)[O-])cc1[N+](=O)[O-])O2,CC#N,24050-28-0,"1,3,7,9-tetranitro-10H-phenoxazine",18.8,[18.8],"[Eckert et al., J. Comput. Chem., 2009, 30, 799-810.]",amine,acetonitrile
527,CN1CCC[NH+]2CCCN=C12,C1CCOC1,-,"1-methyl-3,4,5,6,7,8-hexahydro-2H-pyrimido[1,2-a]pyrimidin-5-ium",18,[18.0],"[Tshepelvitsh et al., Eur. J. Org. Chem., 2019, 6735-6748.]",protonated amine,THF
528,NCCC[NH3+],CC#N,-,3-aminopropylazanium,19.76,[19.76],"[Tshepelvitsh et al., Eur. J. Org. Chem., 2019, 6735-6748.]",protonated amine,acetonitrile
529,O=C(O)[C@@H](Cl)CCl,O,0,0,2.85,[2.85],"[Hunt et al.. J. Chem. Inf. Model, 2020, 60 (6), 2989-2997.]",carboxylic acid,water
530,CCOC(=O)C(C#N)c1c(F)c(F)c2c(F)c(F)c(F)c(F)c2c1F,C(CCl)Cl,62325-34-2,"ethyl 2-cyano-2-(1,3,4,5,6,7,8-heptafluoronaphthalen-2-yl)acetate",52,"[52.0, 52.0]","[Paenurk et al., Chem. Sci., 2017, 8, 6964-6973., Kutt et al., Eur. J. Org. Chem., 2021, 2021 (9), 1407-1419.]",C-H acid,DCE
531,c1ccc2[nH]ccc2c1,CN(C)C=O,120-72-9,1H-indole,21.65,[21.65],"[Kutt et al., Eur. J. Org. Chem., 2021, 2021 (9), 1407-1419.]",amine,DMF
532,O=C(O)[C@@H](O)CO,O,0,0,3.52,[3.52],"[Hunt et al.. J. Chem. Inf. Model, 2020, 60 (6), 2989-2997.]",carboxylic acid,water
533,C[S@](=O)c1cccc(C(C)(C)C)c1O,O,0,0,9.5,[9.5],"[Hunt et al.. J. Chem. Inf. Model, 2020, 60 (6), 2989-2997.]",phenol,water
534,O=C(O)[C@H](O)CCl,O,0,0,3.12,[3.12],"[Hunt et al.. J. Chem. Inf. Model, 2020, 60 (6), 2989-2997.]",carboxylic acid,water
535,Cc1ccc(S(=O)(=O)[N-]C(=O)N2CCC([NH+]3CCC(Oc4ccc(Cl)c(C)c4Cl)CC3)CC2)cc1,O,0,0,8.7,[8.7],"[Hunt et al.. J. Chem. Inf. Model, 2020, 60 (6), 2989-2997.]",protonated amine,water
536,Cc1ccnc(O)n1,O,0,0,9.9,[9.9],"[Hunt et al.. J. Chem. Inf. Model, 2020, 60 (6), 2989-2997.]",hydroxyl alcohol,water
537,N#CCC(=O)O,CC#N,372-09-8,2-cyanoacetic acid,18,[18.0],"[Eckert et al., J. Comput. Chem., 2009, 30, 799-810.]",carboxylic acid,acetonitrile
538,CCCOc1ccccc1C(=O)O,O,0,0,4.24,[4.24],"[Hunt et al.. J. Chem. Inf. Model, 2020, 60 (6), 2989-2997.]",carboxylic acid,water
539,[NH3+]c1cccc(I)c1,O,0,0,3.61,[3.61],"[Hunt et al.. J. Chem. Inf. Model, 2020, 60 (6), 2989-2997.]",protonated amine,water
540,COC(=O)c1ccccc1S(=O)(=O)NC(=O)Nc1nc(C)cc(C)n1,O,0,0,5.2,[5.2],"[Hunt et al.. J. Chem. Inf. Model, 2020, 60 (6), 2989-2997.]",amine,water
541,C1CC[NH2+]CC1,CS(=O)C,17523-59-0,piperidin-1-ium,10.85,[10.85],"[Tshepelvitsh et al., Eur. J. Org. Chem., 2019, 6735-6748.]",protonated amine,DMSO
542,NS(=O)(=O)c1cccc(C[NH3+])c1,O,0,0,8.55,[8.55],"[Hunt et al.. J. Chem. Inf. Model, 2020, 60 (6), 2989-2997.]",protonated amine,water
543,[NH3+]c1ccc2c(c1)CCCC2,O,0,0,5.17,[5.17],"[Hunt et al.. J. Chem. Inf. Model, 2020, 60 (6), 2989-2997.]",protonated amine,water
544,C[NH2+]CC(=O)[O-],O,0,0,10.18,[10.18],"[Hunt et al.. J. Chem. Inf. Model, 2020, 60 (6), 2989-2997.]",protonated amine,water
545,Oc1cccc2nnccc12,O,0,0,7.42,[7.42],"[Hunt et al.. J. Chem. Inf. Model, 2020, 60 (6), 2989-2997.]",phenol,water
546,OCCCl,O,0,0,14.31,[14.31],"[Hunt et al.. J. Chem. Inf. Model, 2020, 60 (6), 2989-2997.]",hydroxyl alcohol,water
547,O=S(=O)(NS(=O)(=O)C(F)(F)F)c1ccccc1,CC#N,174788-87-5,N-(trifluoromethylsulfonyl)benzenesulfonamide,5.6275,"[5.55, 5.52, 5.55, 5.89]","[ Kutt et al., J. Org. Chem., 2011, 76, 391-395., Kutt et al., Eur. J. Org. Chem., 2021, 2021 (9), 1407-1419., Paenurk et al., Chem. Sci., 2017, 8, 6964-6973., Eckert et al., J. Comput. Chem., 2009, 30, 799-810.]",amine,acetonitrile
548,[NH3+]c1ccc2c(c1)-c1ccccc1C2,O,0,0,4.82,[4.82],"[Hunt et al.. J. Chem. Inf. Model, 2020, 60 (6), 2989-2997.]",protonated amine,water
549,O=C(c1ccccc1C(F)(F)F)N(O)c1ccccc1,O,0,0,7.88,[7.88],"[Hunt et al.. J. Chem. Inf. Model, 2020, 60 (6), 2989-2997.]",acidic hydroxyl,water
550,O=[N+]([O-])c1cc(-c2ccccc2)ccc1O,O,0,0,6.73,[6.73],"[Hunt et al.. J. Chem. Inf. Model, 2020, 60 (6), 2989-2997.]",phenol,water
551,Cc1cc(C)c(C)c(O)c1,O,0,0,10.7,[10.7],"[Hunt et al.. J. Chem. Inf. Model, 2020, 60 (6), 2989-2997.]",phenol,water
552,CC(C)(O)C(F)(F)F,O,0,0,11.6,[11.6],"[Hunt et al.. J. Chem. Inf. Model, 2020, 60 (6), 2989-2997.]",hydroxyl alcohol,water
553,C1COCC[NH2+]1,O,0,0,8.5,[8.5],"[Hunt et al.. J. Chem. Inf. Model, 2020, 60 (6), 2989-2997.]",protonated amine,water
554,CCn1cc(C(=O)O)c(=O)c2cc(F)c(N3CCN(C)CC3)cc21,O,0,0,6.28,[6.28],"[Hunt et al.. J. Chem. Inf. Model, 2020, 60 (6), 2989-2997.]",carboxylic acid,water
555,[NH3+]CCc1c[nH]c2ccc(O)cc12,O,0,0,10,[10.0],"[Hunt et al.. J. Chem. Inf. Model, 2020, 60 (6), 2989-2997.]",protonated amine,water
556,Cc1cc(C[N@H+]2Cc3ccccc3[C@@H]2C(=O)Nc2ccc(Cl)cc2Cl)ccc1OCC(=O)[O-],O,0,0,5.6,[5.6],"[Hunt et al.. J. Chem. Inf. Model, 2020, 60 (6), 2989-2997.]",protonated amine,water
557,Cc1cc(C[N@@H+](CC(=O)Nc2ccc(Cl)cc2Cl)C2CCCCC2)ccc1OCC(=O)[O-],O,0,0,6.7,[6.7],"[Hunt et al.. J. Chem. Inf. Model, 2020, 60 (6), 2989-2997.]",protonated amine,water
558,C[NH+](C)C[C@H](O)c1ccc(O)c(O)c1,O,0,0,9.257,[9.257],"[Hunt et al.. J. Chem. Inf. Model, 2020, 60 (6), 2989-2997.]",protonated amine,water
559,[NH3+]C[C@H](O)c1ccccc1,O,0,0,8.79,[8.79],"[Hunt et al.. J. Chem. Inf. Model, 2020, 60 (6), 2989-2997.]",protonated amine,water
560,[NH3+]c1ccccc1F,O,0,0,3.2,[3.2],"[Hunt et al.. J. Chem. Inf. Model, 2020, 60 (6), 2989-2997.]",protonated amine,water
561,CCCO[P@](C)(=O)SCC[NH+](C)C,O,0,0,7.77,[7.77],"[Hunt et al.. J. Chem. Inf. Model, 2020, 60 (6), 2989-2997.]",protonated amine,water
562,CN/C(=C\[N+](=O)[O-])NCCSCc1ccc(C[NH+](C)C)o1,O,0,0,8.47,[8.47],"[Hunt et al.. J. Chem. Inf. Model, 2020, 60 (6), 2989-2997.]",protonated amine,water
563,COc1ccc(Sc2ccc([NH3+])cc2)cc1,O,0,0,3.94,[3.94],"[Hunt et al.. J. Chem. Inf. Model, 2020, 60 (6), 2989-2997.]",protonated amine,water
564,C1=CC=[N+]C=C1,O,16969-45-2,pyridin-1-ium,5.25,[5.25],"[Kutt et al., Tetrahedron Lett., 2018.]",protonated amine,water
565,Nc1ccc([NH3+])cn1,O,0,0,6.48,[6.48],"[Hunt et al.. J. Chem. Inf. Model, 2020, 60 (6), 2989-2997.]",protonated amine,water
566,O=C(O)c1cc([N+](=O)[O-])ccc1O,O,0,0,2.12,[2.12],"[Hunt et al.. J. Chem. Inf. Model, 2020, 60 (6), 2989-2997.]",carboxylic acid,water
567,O=C(O)C1(O)c2ccccc2-c2ccccc21,O,0,0,1.09,[1.09],"[Hunt et al.. J. Chem. Inf. Model, 2020, 60 (6), 2989-2997.]",carboxylic acid,water
568,Cc1ccc(O)c(C)c1C,O,0,0,10.59,[10.59],"[Hunt et al.. J. Chem. Inf. Model, 2020, 60 (6), 2989-2997.]",phenol,water
569,Cn1cc[nH+]c1C(=O)[O-],O,0,0,7.25,[7.25],"[Hunt et al.. J. Chem. Inf. Model, 2020, 60 (6), 2989-2997.]",protonated amine,water
570,Cc1cc(C(=O)O)c2ccccc2c1,O,0,0,3.72,[3.72],"[Hunt et al.. J. Chem. Inf. Model, 2020, 60 (6), 2989-2997.]",carboxylic acid,water
571,N#Cc1ccc(N)[nH+]c1,O,0,0,3.41,[3.41],"[Hunt et al.. J. Chem. Inf. Model, 2020, 60 (6), 2989-2997.]",protonated amine,water
572,N#C[C@H]1C[NH+]2CCC1CC2,O,0,0,7.81,[7.81],"[Hunt et al.. J. Chem. Inf. Model, 2020, 60 (6), 2989-2997.]",protonated amine,water
573,Cc1cnc2c(O)cccc2c1,O,0,0,9.75,[9.75],"[Hunt et al.. J. Chem. Inf. Model, 2020, 60 (6), 2989-2997.]",phenol,water
574,O=[N+]([O-])c1ccc(O)cc1C(F)(F)F,CC#N,88-30-2,4-nitro-3-(trifluoromethyl)phenol,19.3,[19.3],"[Eckert et al., J. Comput. Chem., 2009, 30, 799-810.]",phenol,acetonitrile
575,C[C@H]1CC[NH2+]C(C)(C)C1,O,0,0,11.04,[11.04],"[Hunt et al.. J. Chem. Inf. Model, 2020, 60 (6), 2989-2997.]",protonated amine,water
576,CN1CC[NH+](C)CC1,CS(=O)C,-,"1,4-dimethylpiperazin-1-ium",7.7,[7.7],"[Tshepelvitsh et al., Eur. J. Org. Chem., 2019, 6735-6748.]",protonated amine,DMSO
577,[NH3+]c1cc(Cl)ccc1[N+](=O)[O-],O,0,0,-1.52,[-1.52],"[Hunt et al.. J. Chem. Inf. Model, 2020, 60 (6), 2989-2997.]",protonated amine,water
578,CCCCC[NH3+],O,0,0,10.63,[10.63],"[Hunt et al.. J. Chem. Inf. Model, 2020, 60 (6), 2989-2997.]",protonated amine,water
579,CC(=O)c1cccc(O)c1,O,0,0,9.25,[9.25],"[Hunt et al.. J. Chem. Inf. Model, 2020, 60 (6), 2989-2997.]",phenol,water
580,Oc1ccc(Cl)c(Cl)c1,CC#N,95-77-2,"3,4-dichlorophenol",24,[24.0],"[Eckert et al., J. Comput. Chem., 2009, 30, 799-810.]",phenol,acetonitrile
581,[NH3+]c1cc([N+](=O)[O-])ccc1Cl,O,0,0,0.64,[0.64],"[Hunt et al.. J. Chem. Inf. Model, 2020, 60 (6), 2989-2997.]",protonated amine,water
582,Oc1cccc2cnccc12,O,0,0,8.47,[8.47],"[Hunt et al.. J. Chem. Inf. Model, 2020, 60 (6), 2989-2997.]",phenol,water
583,C[N+](C)(C)c1ccc([NH3+])cc1,O,0,0,2.44,[2.44],"[Hunt et al.. J. Chem. Inf. Model, 2020, 60 (6), 2989-2997.]",protonated amine,water
584,C[NH+]1CCCCC1,O,0,0,10.09,"[10.1, 10.08]","[Hunt et al.. J. Chem. Inf. Model, 2020, 60 (6), 2989-2997. ,   Tshepelvitsh et al., Eur. J. Org. Chem., 2019, 6735-6748.]",protonated amine,water
585,O=C(O)c1cc[n+]([O-])cc1,O,0,0,2.86,[2.86],"[Hunt et al.. J. Chem. Inf. Model, 2020, 60 (6), 2989-2997.]",carboxylic acid,water
586,N#CC(C#N)c1c(F)c(F)c(C(F)(F)F)c(F)c1F,C(CCl)Cl,55852-24-9,"2-[2,3,5,6-tetrafluoro-4-(trifluoromethyl)phenyl]propanedinitrile",44.2,"[44.2, 44.2]","[Kutt et al., Eur. J. Org. Chem., 2021, 2021 (9), 1407-1419., Paenurk et al., Chem. Sci., 2017, 8, 6964-6973.]",C-H acid,DCE
587,Nc1cccc(N)[nH+]1,CC#N,,"pyridin-1-ium-2,6-diamine",14.77,[14.77],"[Lokov et al., Eur. J. Org. Chem., 2017, 30, 4475-4489.]",protonated amine,acetonitrile
588,CCC(=O)N[C@@H](c1cccs1)c1cc(Cl)c2ccc[nH+]c2c1O,O,0,0,2.5,[2.5],"[Hunt et al.. J. Chem. Inf. Model, 2020, 60 (6), 2989-2997.]",protonated amine,water
589,CC#Cc1c(C)nc(O)nc1C,O,0,0,9.49,[9.49],"[Hunt et al.. J. Chem. Inf. Model, 2020, 60 (6), 2989-2997.]",hydroxyl alcohol,water
590,[NH3+]c1ccc(F)cc1,O,0,0,4.65,[4.65],"[Hunt et al.. J. Chem. Inf. Model, 2020, 60 (6), 2989-2997.]",protonated amine,water
591,CC(=O)O,CC#N,64-19-7,acetic acid,23.506,"[23.51, 23.51, 23.5, 23.5, 23.51]","[Eckert et al., J. Comput. Chem., 2009, 30, 799-810., Kutt et al., Tetrahedron Lett., 2018., Kutt et al., Eur. J. Org. Chem., 2021, 2021 (9), 1407-1419., Kutt et al., Eur. J. Org. Chem., 2021, 2021 (9), 1407-1419., Paenurk et al., Chem. Sci., 2017, 8, 6964-6973.]",carboxylic acid,acetonitrile
592,CC(C)[NH2+]C[C@@H](O)COc1ccc(COCCOC(C)C)cc1,O,0,0,9.87,[9.87],"[Hunt et al.. J. Chem. Inf. Model, 2020, 60 (6), 2989-2997.]",protonated amine,water
593,CC[NH+](CC)c1ccccc1,O,0,0,6.61,[6.61],"[Hunt et al.. J. Chem. Inf. Model, 2020, 60 (6), 2989-2997.]",protonated amine,water
594,C[NH+](C)Cc1ccc([N+](=O)[O-])cc1,O,0,0,8.14,[8.14],"[Hunt et al.. J. Chem. Inf. Model, 2020, 60 (6), 2989-2997.]",protonated amine,water
595,CC[C@@H]([NH3+])c1cccc(Br)c1,O,0,0,8.9,[8.9],"[Hunt et al.. J. Chem. Inf. Model, 2020, 60 (6), 2989-2997.]",protonated amine,water
596,N[C@@H](CS)C(=O)O,O,0,0,8.4,[8.4],"[Hunt et al.. J. Chem. Inf. Model, 2020, 60 (6), 2989-2997.]",carboxylic acid,water
597,O=S(=O)(O)C(F)(F)F,CC#N,1493-13-6,trifluoromethanesulfonic acid,2.6,"[2.6, 2.6]","[Eckert et al., J. Comput. Chem., 2009, 30, 799-810., Kutt et al., Tetrahedron Lett., 2018.]",sulfonic acid,acetonitrile
598,CN1C(C(=O)Nc2ccccn2)=C(O)c2ccccc2S1(=O)=O,O,0,0,6.3,[6.3],"[Hunt et al.. J. Chem. Inf. Model, 2020, 60 (6), 2989-2997.]",hydroxyl alcohol,water
599,C[NH2+]Cc1cccc(C)n1,O,0,0,9.15,[9.15],"[Hunt et al.. J. Chem. Inf. Model, 2020, 60 (6), 2989-2997.]",protonated amine,water
600,CCCCC[NH2+]CCCCC,O,0,0,11.16,[11.16],"[Hunt et al.. J. Chem. Inf. Model, 2020, 60 (6), 2989-2997.]",protonated amine,water
601,Cc1ccccc1[NH2+]C1CCCCC1,O,0,0,5.34,[5.34],"[Hunt et al.. J. Chem. Inf. Model, 2020, 60 (6), 2989-2997.]",protonated amine,water
602,C[C@H]([NH3+])c1cccc(C(F)(F)F)c1,O,0,0,8.77,[8.77],"[Hunt et al.. J. Chem. Inf. Model, 2020, 60 (6), 2989-2997.]",protonated amine,water
603,Oc1cccc(Cl)c1,O,0,0,9.08,[9.08],"[Hunt et al.. J. Chem. Inf. Model, 2020, 60 (6), 2989-2997.]",phenol,water
604,Cc1ccc(O)cc1,O,0,0,10.26,[10.26],"[Hunt et al.. J. Chem. Inf. Model, 2020, 60 (6), 2989-2997.]",phenol,water
605,[NH2+]=C(c1ccccc1)c1cccc(O)c1,O,0,0,5.08,[5.08],"[Hunt et al.. J. Chem. Inf. Model, 2020, 60 (6), 2989-2997.]",protonated amine,water
606,Oc1cc(Cl)c(Cl)cc1Cl,O,0,0,7.37,[7.37],"[Hunt et al.. J. Chem. Inf. Model, 2020, 60 (6), 2989-2997.]",phenol,water
607,Cc1ccccc1[NH2+]C(C)(C)C,O,0,0,6.49,[6.49],"[Hunt et al.. J. Chem. Inf. Model, 2020, 60 (6), 2989-2997.]",protonated amine,water
608,COCC[NH2+]CCOC,O,0,0,9.51,[9.51],"[Hunt et al.. J. Chem. Inf. Model, 2020, 60 (6), 2989-2997.]",protonated amine,water
609,[NH3+]CC=C(Cl)Cl,O,0,0,9.47,[9.47],"[Hunt et al.. J. Chem. Inf. Model, 2020, 60 (6), 2989-2997.]",protonated amine,water
610,[NH2+]=C(c1ccccc1)c1ccccc1,O,0,0,7.18,[7.18],"[Hunt et al.. J. Chem. Inf. Model, 2020, 60 (6), 2989-2997.]",protonated amine,water
611,CCCCCCCCCCCC[NH3+],O,0,0,10.63,[10.63],"[Hunt et al.. J. Chem. Inf. Model, 2020, 60 (6), 2989-2997.]",protonated amine,water
612,COc1cc[nH+]c(CSc2nc3ccccc3[nH]2)c1,O,0,0,5.3,[5.3],"[Hunt et al.. J. Chem. Inf. Model, 2020, 60 (6), 2989-2997.]",protonated amine,water
613,CCOC(=O)C(C(=O)OCC)c1c(F)c(F)c(F)c(F)c1F,CC#N,1582-05-4,"diethyl 2-(2,3,4,5,6-pentafluorophenyl)propanedioate",22.86,"[22.85, 22.88, 22.85]","[Eckert et al., J. Comput. Chem., 2009, 30, 799-810., Kutt et al., Eur. J. Org. Chem., 2021, 2021 (9), 1407-1419., Paenurk et al., Chem. Sci., 2017, 8, 6964-6973.]",C-H acid,acetonitrile
614,CS(=O)(=O)c1ccc([NH3+])cc1,O,0,0,1.35,[1.35],"[Hunt et al.. J. Chem. Inf. Model, 2020, 60 (6), 2989-2997.]",protonated amine,water
615,COC(=O)C1=C(C)NC(C)=C(C(=O)OCC[N@@H+](C)Cc2ccccc2)[C@H]1c1cccc([N+](=O)[O-])c1,O,0,0,7.26,[7.26],"[Hunt et al.. J. Chem. Inf. Model, 2020, 60 (6), 2989-2997.]",protonated amine,water
616,C=C[C@H]1C[N@H+]2CC[C@@H]1C[C@H]2[C@H](O)c1ccnc2ccc(OC)cc12,O,0,0,8.5,[8.5],"[Hunt et al.. J. Chem. Inf. Model, 2020, 60 (6), 2989-2997.]",protonated amine,water
617,C[Si](C)(C)c1ccc([NH3+])cc1,O,0,0,4.36,[4.36],"[Hunt et al.. J. Chem. Inf. Model, 2020, 60 (6), 2989-2997.]",protonated amine,water
618,CC(=O)Nc1c(F)c(F)c(F)c(F)c1F,CC#N,653-22-5,"N-(2,3,4,5,6-pentafluorophenyl)acetamide",26.45,[26.45],"[Kutt et al., Eur. J. Org. Chem., 2021, 2021 (9), 1407-1419.]",amine,acetonitrile
619,NC(=O)NCC(=O)O,O,0,0,3.89,[3.89],"[Hunt et al.. J. Chem. Inf. Model, 2020, 60 (6), 2989-2997.]",carboxylic acid,water
620,N#CC(C#N)=C(c1ccccc1)C(C#N)C#N,C(CCl)Cl,96463-47-7,"2-phenylprop-1-ene-1,1,3,3-tetracarbonitrile",35.5,[35.5],"[Paenurk et al., Chem. Sci., 2017, 8, 6964-6973.]",C-H acid,DCE
621,Oc1c(F)c(F)c(F)c2c(F)c(F)c(F)c(F)c12,CS(=O)C,5386-30-1,"2,3,4,5,6,7,8-heptafluoronaphthalen-1-ol",8.9,[8.9],"[Kutt et al., Eur. J. Org. Chem., 2021, 2021 (9), 1407-1419.]",phenol,DMSO
622,Cn1ccc(O)nc1=O,O,0,0,9.71,[9.71],"[Hunt et al.. J. Chem. Inf. Model, 2020, 60 (6), 2989-2997.]",phenol,water
623,O=C1c2ccccc2C(=O)c2c(O)ccc(O)c21,O,0,0,9.9,[9.9],"[Hunt et al.. J. Chem. Inf. Model, 2020, 60 (6), 2989-2997.]",phenol,water
624,[NH3+]c1cc([N+](=O)[O-])cc([N+](=O)[O-])c1,O,0,0,0.229,[0.229],"[Hunt et al.. J. Chem. Inf. Model, 2020, 60 (6), 2989-2997.]",protonated amine,water
625,Cc1ccc(S(=O)(=O)NS(=O)(=O)c2ccc(Cl)c([N+](=O)[O-])c2)cc1,CC#N,215395-06-5,4-chloro-N-(4-methylphenyl)sulfonyl-3-nitrobenzenesulfonamide,9.71,[9.71],"[Paenurk et al., Chem. Sci., 2017, 8, 6964-6973.]",amine,acetonitrile
626,O=C(NO)c1ccccc1,O,0,0,8.88,[8.88],"[Hunt et al.. J. Chem. Inf. Model, 2020, 60 (6), 2989-2997.]",amine,water
627,O=C(O)CCCC(=O)O,CC#N,110-94-1,pentanedioic acid,19.2,[19.2],"[Eckert et al., J. Comput. Chem., 2009, 30, 799-810.]",carboxylic acid,acetonitrile
628,c1ccc(C[NH+](Cc2ccccc2)Cc2ccccc2)cc1,C1CCOC1,-,tribenzylazanium,6.5,[6.5],"[Tshepelvitsh et al., Eur. J. Org. Chem., 2019, 6735-6748.]",protonated amine,THF
629,CCCCCCC[N@@H+](CC[N+]1(C)CCCCC1)c1ccccc1,O,0,0,3.21,[3.21],"[Hunt et al.. J. Chem. Inf. Model, 2020, 60 (6), 2989-2997.]",protonated amine,water
630,O=[N+]([O-])c1ccc2c(c1)Oc1cc([N+](=O)[O-])ccc1N2,CC#N,-,"3,7-dinitro-10H-phenoxazine",22.8,[22.8],"[Eckert et al., J. Comput. Chem., 2009, 30, 799-810.]",amine,acetonitrile
631,C/C=C/CO,O,0,0,15.8,[15.8],"[Hunt et al.. J. Chem. Inf. Model, 2020, 60 (6), 2989-2997.]",hydroxyl alcohol,water
632,CC(C)(C)c1cc(N=O)cc(C(C)(C)C)c1O,O,0,0,8.18,[8.18],"[Hunt et al.. J. Chem. Inf. Model, 2020, 60 (6), 2989-2997.]",phenol,water
633,C[NH+](C)[C@@H]1CCc2c(ccc(O)c2O)C1,O,0,0,9.4,"[8.85, 10.5, 8.85]","[Hunt et al.. J. Chem. Inf. Model, 2020, 60 (6), 2989-2997. ,   Hunt et al.. J. Chem. Inf. Model, 2020, 60 (6), 2989-2997. ,   Hunt et al.. J. Chem. Inf. Model, 2020, 60 (6), 2989-2997.]",protonated amine,water
634,C=C1CC[N@@H+](C)C[C@H]1C,O,0,0,9.09,[9.09],"[Hunt et al.. J. Chem. Inf. Model, 2020, 60 (6), 2989-2997.]",protonated amine,water
635,CCCCCC[NH+](C[C@@H](C)O)C[C@@H](C)O,O,0,0,8.5,[8.5],"[Hunt et al.. J. Chem. Inf. Model, 2020, 60 (6), 2989-2997.]",protonated amine,water
636,CCCC[NH+](C)C,O,0,0,10.2,[10.2],"[Hunt et al.. J. Chem. Inf. Model, 2020, 60 (6), 2989-2997.]",protonated amine,water