,Solute SMILES,Solvent SMILES,Solute CAS,Solute IUPAC,pKa (avg),pKa (all),Source (all),Acid type,Solvent name
2990,C[NH+](C)Cc1cccnc1,O,0,0,8,[8.0],"[Hunt et al.. J. Chem. Inf. Model, 2020, 60 (6), 2989-2997.]",protonated amine,water
2991,O=C(O)c1ccccc1C(=O)Nc1cccc2ccccc12,O,0,0,4.6,[4.6],"[Hunt et al.. J. Chem. Inf. Model, 2020, 60 (6), 2989-2997.]",carboxylic acid,water
2992,CCCCCCCCCCCC(=O)O,O,0,0,5.3,[5.3],"[Hunt et al.. J. Chem. Inf. Model, 2020, 60 (6), 2989-2997.]",carboxylic acid,water
2993,CSc1ccc([NH3+])cc1I,O,0,0,3.44,[3.44],"[Hunt et al.. J. Chem. Inf. Model, 2020, 60 (6), 2989-2997.]",protonated amine,water
2994,CN(C)P(=N[P+](N=P(N(C)C)(N(C)C)N(C)C)(N=P(N(C)C)(N(C)C)N(C)C)NC(C)(C)C)(N(C)C)N(C)C,CS(=O)C,-,(tert-butylamino)-tris[[tris(dimethylamino)-_5-phosphanylidene]amino]phosphanium,30.25,[30.25],"[Tshepelvitsh et al., Eur. J. Org. Chem., 2019, 6735-6748.]",amine,DMSO
2995,Oc1ccccc1-c1ccccc1,O,0,0,10.01,[10.01],"[Hunt et al.. J. Chem. Inf. Model, 2020, 60 (6), 2989-2997.]",phenol,water
2996,C1=C(c2ccccc2)[NH2+]CC1,O,0,0,6.84,[6.84],"[Hunt et al.. J. Chem. Inf. Model, 2020, 60 (6), 2989-2997.]",protonated amine,water
2997,C[NH+]1CC=CC1,O,0,0,9.88,[9.88],"[Hunt et al.. J. Chem. Inf. Model, 2020, 60 (6), 2989-2997.]",protonated amine,water
2998,[NH3+]c1ccc2nccnc2n1,O,0,0,4.25,[4.25],"[Hunt et al.. J. Chem. Inf. Model, 2020, 60 (6), 2989-2997.]",protonated amine,water
2999,C[N@@H+]1CCC[C@H]1c1ccc[nH+]c1,O,0,0,3.2,[3.2],"[Hunt et al.. J. Chem. Inf. Model, 2020, 60 (6), 2989-2997.]",protonated amine,water
3000,Cc1ccc(S(N)(=O)=O)cc1,O,70-55-3,4-methylbenzenesulfonamide,10.21,[10.21],"[Kutt et al., Eur. J. Org. Chem., 2021, 2021 (9), 1407-1419.]",amine,water
3001,O=[N+]([O-])c1ccc(S(=O)(=O)NS(=O)(=O)c2ccc([N+](=O)[O-])cc2)cc1,C(CCl)Cl,7/6/09,4-nitro-N-(4-nitrophenyl)sulfonylbenzenesulfonamide,41.1,"[41.1, 41.1]","[Kutt et al., Eur. J. Org. Chem., 2021, 2021 (9), 1407-1419., Paenurk et al., Chem. Sci., 2017, 8, 6964-6973.]",amine,DCE
3002,[NH3+]CCc1ccccn1,O,0,0,9.78,[9.78],"[Hunt et al.. J. Chem. Inf. Model, 2020, 60 (6), 2989-2997.]",protonated amine,water
3003,Br,CS(=O)C,10035-10-6,bromane,-6.8,"[-6.8, -6.8]","[Kutt et al., Tetrahedron Lett., 2018., Kutt et al., Eur. J. Org. Chem., 2021, 2021 (9), 1407-1419.]",inorganic,DMSO
3004,O=[N+]([O-])c1ccc2cc[nH]c2c1,CC#N,4769-96-4,6-nitro-1H-indole,27.79,"[27.79, 27.79]","[Kutt et al., Eur. J. Org. Chem., 2021, 2021 (9), 1407-1419., Kutt et al., Eur. J. Org. Chem., 2021, 2021 (9), 1407-1419.]",amine,acetonitrile
3005,CC(=O)O,C1CCOC1,64-19-7,acetic acid,22.48,[22.48],"[Kutt et al., Tetrahedron Lett., 2018.]",carboxylic acid,THF
3006,C[NH2+]c1ccccc1,CS(=O)C,-,methyl(phenyl)azanium,2.94,[2.94],"[Tshepelvitsh et al., Eur. J. Org. Chem., 2019, 6735-6748.]",protonated amine,DMSO
3007,O=S(=O)(O)C(F)(F)F,C1CCOC1,1493-13-6,trifluoromethanesulfonic acid,7.83,[7.83],"[Kutt et al., Tetrahedron Lett., 2018.]",sulfonic acid,THF
3008,c1cncc(CC[NH+]2CCCCC2)c1,O,0,0,8.81,[8.81],"[Hunt et al.. J. Chem. Inf. Model, 2020, 60 (6), 2989-2997.]",protonated amine,water
3009,[NH3+]c1ccc([N+](=O)[O-])c(C(F)(F)F)c1,O,0,0,-0.05,[-0.05],"[Hunt et al.. J. Chem. Inf. Model, 2020, 60 (6), 2989-2997.]",protonated amine,water
3010,c1ccc2[nH+]c[nH]c2c1,O,-,1H-benzimidazol-3-ium,5.56,"[5.56, 5.56]","[Lokov et al., Eur. J. Org. Chem., 2017, 30, 4475-4489., Tshepelvitsh et al., Eur. J. Org. Chem., 2019, 6735-6748.]",protonated amine,water
3011,CN(c1cccc[nH+]1)S(C)(=O)=O,O,0,0,1.73,[1.73],"[Hunt et al.. J. Chem. Inf. Model, 2020, 60 (6), 2989-2997.]",protonated amine,water
3012,CCCC[C@H]([NH3+])c1ccccc1,O,0,0,9.45,[9.45],"[Hunt et al.. J. Chem. Inf. Model, 2020, 60 (6), 2989-2997.]",protonated amine,water
3013,Cc1ccccc1O,O,0,0,10.28,[10.28],"[Hunt et al.. J. Chem. Inf. Model, 2020, 60 (6), 2989-2997.]",phenol,water
3014,CCO[Si](C)(C[NH3+])OCC,O,0,0,9.2,[9.2],"[Hunt et al.. J. Chem. Inf. Model, 2020, 60 (6), 2989-2997.]",protonated amine,water
3015,COc1cc([NH3+])c2ccccc2c1,O,0,0,3.26,[3.26],"[Hunt et al.. J. Chem. Inf. Model, 2020, 60 (6), 2989-2997.]",protonated amine,water
3016,[NH3+]c1cc(Br)c2ccccc2c1,O,0,0,3.4,[3.4],"[Hunt et al.. J. Chem. Inf. Model, 2020, 60 (6), 2989-2997.]",protonated amine,water
3017,Cc1ccccc1CCC(=O)O,O,0,0,4.66,[4.66],"[Hunt et al.. J. Chem. Inf. Model, 2020, 60 (6), 2989-2997.]",carboxylic acid,water
3018,CC(C)(C)[NH+]1CCCC1,O,0,0,11.13,[11.13],"[Hunt et al.. J. Chem. Inf. Model, 2020, 60 (6), 2989-2997.]",protonated amine,water
3019,O=C(O)CCCO,O,0,0,4.71,[4.71],"[Hunt et al.. J. Chem. Inf. Model, 2020, 60 (6), 2989-2997.]",carboxylic acid,water
3020,C[NH2+]C[C@H](O)c1ccc(O)c(OC)c1,O,0,0,9.52,[9.52],"[Hunt et al.. J. Chem. Inf. Model, 2020, 60 (6), 2989-2997.]",protonated amine,water
3021,CC(C)(O)C[NH3+],O,0,0,9.25,[9.25],"[Hunt et al.. J. Chem. Inf. Model, 2020, 60 (6), 2989-2997.]",protonated amine,water
3022,CC(C)(C)c1ccc(SCC(=O)O)cc1,O,0,0,3.758,[3.758],"[Hunt et al.. J. Chem. Inf. Model, 2020, 60 (6), 2989-2997.]",carboxylic acid,water
3023,C[NH2+]c1cccc2ccccc12,O,0,0,3.67,[3.67],"[Hunt et al.. J. Chem. Inf. Model, 2020, 60 (6), 2989-2997.]",protonated amine,water
3024,O=C(NC[C@@H](O)CN1CCC(Oc2ccc(Cl)c(Cl)c2)CC1)c1c[nH]nc1C(F)(F)F,O,0,0,7.6,[7.6],"[Hunt et al.. J. Chem. Inf. Model, 2020, 60 (6), 2989-2997.]",hydroxyl alcohol,water
3025,CN(C)c1ccc(C(=O)O)cc1,CC#N,619-84-1,4-(dimethylamino)benzoic acid,23,[23.0],"[Eckert et al., J. Comput. Chem., 2009, 30, 799-810.]",carboxylic acid,acetonitrile
3026,Oc1cc(Cl)cc(Cl)c1,O,0,0,8.18,[8.18],"[Hunt et al.. J. Chem. Inf. Model, 2020, 60 (6), 2989-2997.]",phenol,water
3027,Oc1ccc2ncncc2c1,O,0,0,8.21,[8.21],"[Hunt et al.. J. Chem. Inf. Model, 2020, 60 (6), 2989-2997.]",phenol,water
3028,COC(=O)C1c2ccccc2-c2ccccc21,O,3002-30-0,methyl 9H-fluorene-9-carboxylate,11.5,[11.5],"[Kutt et al., Eur. J. Org. Chem., 2021, 2021 (9), 1407-1419.]",C-H acid,water
3029,C[C@@H]1[C@@H](C)C(C)(C)[NH2+]C1(C)C,O,0,0,11.4,[11.4],"[Hunt et al.. J. Chem. Inf. Model, 2020, 60 (6), 2989-2997.]",protonated amine,water
3030,O=C(O)CCC(=O)O,CC#N,110-15-6,butanedioic acid,17.6,[17.6],"[Eckert et al., J. Comput. Chem., 2009, 30, 799-810.]",carboxylic acid,acetonitrile
3031,S=C(Nc1ccccc1)c1ccccc1,O,0,0,10.6,[10.6],"[Hunt et al.. J. Chem. Inf. Model, 2020, 60 (6), 2989-2997.]",amine,water
3032,Oc1cccc(-c2ccccc2)c1,O,0,0,9.64,[9.64],"[Hunt et al.. J. Chem. Inf. Model, 2020, 60 (6), 2989-2997.]",phenol,water
3033,CCOC(=O)[C@@H]([NH3+])CC(C)C,O,0,0,7.57,[7.57],"[Hunt et al.. J. Chem. Inf. Model, 2020, 60 (6), 2989-2997.]",protonated amine,water
3034,[NH3+]C(Cc1ccccc1)Cc1ccccc1,O,0,0,8,[8.0],"[Hunt et al.. J. Chem. Inf. Model, 2020, 60 (6), 2989-2997.]",protonated amine,water
3035,O=C(O)COc1nc(Cl)c(Cl)cc1Cl,O,0,0,3.97,[3.97],"[Hunt et al.. J. Chem. Inf. Model, 2020, 60 (6), 2989-2997.]",carboxylic acid,water
3036,Nc1cccc[nH+]1,O,0,0,6.82,[6.82],"[Hunt et al.. J. Chem. Inf. Model, 2020, 60 (6), 2989-2997.]",protonated amine,water
3037,O=[N+]([O-])c1cccc(S(=O)(=O)NS(=O)(=O)c2ccc(Cl)c([N+](=O)[O-])c2)c1,CC#N,34350-21-5,-,7.86,"[7.84, 7.88]","[Kutt et al., Eur. J. Org. Chem., 2021, 2021 (9), 1407-1419., Paenurk et al., Chem. Sci., 2017, 8, 6964-6973.]",amine,acetonitrile
3038,CC[C@@H](C)[NH+]1CCC(c2ccccc2)(c2ccccc2)CC1,O,0,0,9.67,[9.67],"[Hunt et al.. J. Chem. Inf. Model, 2020, 60 (6), 2989-2997.]",protonated amine,water
3039,O=C(O)Cc1ccc(I)cc1,O,0,0,4.18,[4.18],"[Hunt et al.. J. Chem. Inf. Model, 2020, 60 (6), 2989-2997.]",carboxylic acid,water
3040,O=C(c1ccccc1)[C@@H](C[NH+]1CCOCC1)c1ccccc1,O,0,0,6.17,[6.17],"[Hunt et al.. J. Chem. Inf. Model, 2020, 60 (6), 2989-2997.]",protonated amine,water
3041,O=C(O)c1c(O)cccc1[N+](=O)[O-],O,0,0,2.24,[2.24],"[Hunt et al.. J. Chem. Inf. Model, 2020, 60 (6), 2989-2997.]",carboxylic acid,water
3042,O=C(O)c1c(Cl)ccc(Cl)c1Cl,O,0,0,1.5,[1.5],"[Hunt et al.. J. Chem. Inf. Model, 2020, 60 (6), 2989-2997.]",carboxylic acid,water
3043,Cc1c([NH3+])cccc1Cl,O,0,0,2.49,[2.49],"[Hunt et al.. J. Chem. Inf. Model, 2020, 60 (6), 2989-2997.]",protonated amine,water
3044,CN(C)[P+](Nc1ccccc1)(N(C)C)N(C)C,C1CCOC1,-,anilino-tris(dimethylamino)phosphanium,15.3,[15.3],"[Tshepelvitsh et al., Eur. J. Org. Chem., 2019, 6735-6748.]",amine,THF
3045,O=[N+]([O-])c1cccc(S(=O)(=O)NS(=O)(=O)c2ccc(Cl)cc2)c1,CC#N,95468-16-9,N-(4-chlorophenyl)sulfonyl-3-nitrobenzenesulfonamide,9.17,"[9.17, 9.17]","[Eckert et al., J. Comput. Chem., 2009, 30, 799-810., Kutt et al., Eur. J. Org. Chem., 2021, 2021 (9), 1407-1419.]",amine,acetonitrile
3046,O=C(O)c1ccccc1C(=O)c1ccccc1,O,0,0,3.536,[3.536],"[Hunt et al.. J. Chem. Inf. Model, 2020, 60 (6), 2989-2997.]",carboxylic acid,water
3047,C=C1CC[NH+](C)CC1,O,0,0,9.03,[9.03],"[Hunt et al.. J. Chem. Inf. Model, 2020, 60 (6), 2989-2997.]",protonated amine,water
3048,c1ccc2c(c1)Sc1ccccc1N2CC[NH+]1CCCC1,O,0,0,9.7,[9.7],"[Hunt et al.. J. Chem. Inf. Model, 2020, 60 (6), 2989-2997.]",protonated amine,water
3049,O=P1(NS(=O)(=O)C(F)(F)C(F)(F)C(F)(F)C(F)(F)C(F)(F)C(F)(F)C(F)(F)C(F)(F)F)Oc2c(-c3ccccc3)cc3c(c2-c2c4c(cc(C5C=CC=CC5)c2O1)CCCC4)CCCC3,CC#N,1261302-68-4,-,6.745,"[6.69, 6.8]","[Kutt et al., Eur. J. Org. Chem., 2021, 2021 (9), 1407-1419., Paenurk et al., Chem. Sci., 2017, 8, 6964-6973.]",amine,acetonitrile
3050,C1CN=C2NCCC[NH+]2C1,C1CCOC1,-,"2,3,4,5,6,7,8,9-octahydropyrimido[1,2-a]pyrimidin-5-ium",20.2,"[19.4, 21.0]","[Kutt et al., Tetrahedron Lett., 2018., Tshepelvitsh et al., Eur. J. Org. Chem., 2019, 6735-6748.]",protonated amine,THF
3051,Cn1c(=O)c2c([nH+]cn2C)n(C)c1=O,CC#N,,"1,3,7-trimethylpurin-7-ium-2,6-dione",7.51,[7.51],"[Lokov et al., Eur. J. Org. Chem., 2017, 30, 4475-4489.]",protonated amine,acetonitrile
3052,O=C(O)CBr,O,0,0,2.89,[2.89],"[Hunt et al.. J. Chem. Inf. Model, 2020, 60 (6), 2989-2997.]",carboxylic acid,water
3053,O=C(O)COc1cccc(Br)c1,O,0,0,3.095,[3.095],"[Hunt et al.. J. Chem. Inf. Model, 2020, 60 (6), 2989-2997.]",carboxylic acid,water
3054,C/C=C(/C)C(=O)O,O,0,0,4.29,[4.29],"[Hunt et al.. J. Chem. Inf. Model, 2020, 60 (6), 2989-2997.]",carboxylic acid,water
3055,COc1ccc(-c2cnc(O)nc2)cc1,O,0,0,8.86,[8.86],"[Hunt et al.. J. Chem. Inf. Model, 2020, 60 (6), 2989-2997.]",hydroxyl alcohol,water
3056,O=[N+]([O-])c1cc(C2CCCCC2)c(O)c([N+](=O)[O-])c1,O,0,0,4.52,[4.52],"[Hunt et al.. J. Chem. Inf. Model, 2020, 60 (6), 2989-2997.]",phenol,water
3057,C[C@@H]([NH3+])[C@@H](O)c1ccc(O)cc1,O,0,0,8.7,[8.7],"[Hunt et al.. J. Chem. Inf. Model, 2020, 60 (6), 2989-2997.]",protonated amine,water
3058,O=C([N-]S(=O)(=O)N1CCC([NH+]2CCC(Oc3ccc(Cl)c(Cl)c3)CC2)CC1)c1ccccc1,O,0,0,8.1,[8.1],"[Hunt et al.. J. Chem. Inf. Model, 2020, 60 (6), 2989-2997.]",protonated amine,water
3059,CC(C)(C)S[NH2+]c1ccccc1,O,0,0,3.44,[3.44],"[Hunt et al.. J. Chem. Inf. Model, 2020, 60 (6), 2989-2997.]",protonated amine,water
3060,CC[NH2+]c1ccccc1C,O,0,0,4.96,[4.96],"[Hunt et al.. J. Chem. Inf. Model, 2020, 60 (6), 2989-2997.]",protonated amine,water
3061,NC1=[NH+][C@H](c2ccco2)Nc2c(F)ccc(F)c21,O,0,0,8.2,[8.2],"[Hunt et al.. J. Chem. Inf. Model, 2020, 60 (6), 2989-2997.]",protonated amine,water
3062,COc1c(N2C[C@@H]3CCCN[C@@H]3C2)c(F)cc2c(=O)c(C(=O)O)cn(C3CC3)c12,O,0,0,6.31,[6.31],"[Hunt et al.. J. Chem. Inf. Model, 2020, 60 (6), 2989-2997.]",carboxylic acid,water
3063,Oc1cccc(C(F)(F)F)c1,CN(C)C=O,98-17-9,3-(trifluoromethyl)phenol,15.7,[15.7],"[Kutt et al., Eur. J. Org. Chem., 2021, 2021 (9), 1407-1419.]",phenol,DMF
3064,C[C@@H](CC(c1ccccc1)c1ccccc1)[NH+]1CCOCC1,O,0,0,6.85,[6.85],"[Hunt et al.. J. Chem. Inf. Model, 2020, 60 (6), 2989-2997.]",protonated amine,water
3065,COc1cc2ncnc(Nc3ccc(F)c(Cl)c3)c2cc1NC(=O)/C=C/C[NH+]1CCCCC1,O,0,0,9.36,[9.36],"[Hunt et al.. J. Chem. Inf. Model, 2020, 60 (6), 2989-2997.]",protonated amine,water
3066,CCOC(=O)N1CCC(c2cc(=O)n(-c3ccccc3)[nH]2)CC1,O,0,0,6.8,[6.8],"[Hunt et al.. J. Chem. Inf. Model, 2020, 60 (6), 2989-2997.]",amine,water
3067,CN(C)C(=N)[NH+](C)C,CC#N,-,"(N,N-dimethylcarbamimidoyl)-dimethylazanium",23.325,"[23.3, 23.35]","[Kutt et al., Tetrahedron Lett., 2018., Tshepelvitsh et al., Eur. J. Org. Chem., 2019, 6735-6748.]",protonated amine,acetonitrile
3068,Nc1[nH]c2ccccc2[nH+]1,O,0,0,7.2,[7.2],"[Hunt et al.. J. Chem. Inf. Model, 2020, 60 (6), 2989-2997.]",protonated amine,water
3069,CC(C)Cc1ccc([C@@H](C)C(=O)NS(C)(=O)=O)cc1,O,0,0,4.7,[4.7],"[Hunt et al.. J. Chem. Inf. Model, 2020, 60 (6), 2989-2997.]",amine,water
3070,O=C(O)C(Br)(Br)Br,O,0,0,-0.147,[-0.147],"[Hunt et al.. J. Chem. Inf. Model, 2020, 60 (6), 2989-2997.]",carboxylic acid,water
3071,C1CN=C2CCC[NH+]2C1,C1CCOC1,-,"3,4,5,6,7,8-hexahydro-2H-pyrrolo[1,2-a]pyrimidin-5-ium",17.2,[17.2],"[Tshepelvitsh et al., Eur. J. Org. Chem., 2019, 6735-6748.]",protonated amine,THF
3072,COc1ccc2c([NH3+])cccc2c1,O,0,0,3.9,[3.9],"[Hunt et al.. J. Chem. Inf. Model, 2020, 60 (6), 2989-2997.]",protonated amine,water
3073,[O-][Cl+3]([O-])([O-])O,C1CCOC1,7601-90-3,perchloric acid,7.57,[7.57],"[Kutt et al., Tetrahedron Lett., 2018.]",inorganic,THF
3074,O=C(O)c1ccccc1Oc1ccccc1,O,0,0,3.53,[3.53],"[Hunt et al.. J. Chem. Inf. Model, 2020, 60 (6), 2989-2997.]",carboxylic acid,water
3075,N#CC(c1c(F)c(F)c(C(F)(F)F)c(F)c1F)c1c(F)c(F)c(C(F)(F)F)c(F)c1F,O,58436-28-5,"2,2-bis[2,3,5,6-tetrafluoro-4-(trifluoromethyl)phenyl]acetonitrile",4.4,[4.4],"[Kutt et al., Eur. J. Org. Chem., 2021, 2021 (9), 1407-1419.]",C-H acid,water
3076,Cc1cc([NH3+])ccc1[N+](=O)[O-],O,0,0,1.5,[1.5],"[Hunt et al.. J. Chem. Inf. Model, 2020, 60 (6), 2989-2997.]",protonated amine,water
3077,C[NH2+]c1cccc(C)c1,O,0,0,5,[5.0],"[Hunt et al.. J. Chem. Inf. Model, 2020, 60 (6), 2989-2997.]",protonated amine,water
3078,CC1(C)S[C@@H]2[C@H](NC(=O)[C@H](N)c3ccccc3)C(=O)N2[C@H]1C(=O)O,O,0,0,2.51,[2.51],"[Hunt et al.. J. Chem. Inf. Model, 2020, 60 (6), 2989-2997.]",carboxylic acid,water
3079,CN1CC[NH+](CC(=O)N2c3ccccc3C(=O)Nc3cccnc32)CC1,O,0,0,7.88,[7.88],"[Hunt et al.. J. Chem. Inf. Model, 2020, 60 (6), 2989-2997.]",protonated amine,water
3080,[NH3+]c1cccc2c(Cl)cccc12,O,0,0,3.34,[3.34],"[Hunt et al.. J. Chem. Inf. Model, 2020, 60 (6), 2989-2997.]",protonated amine,water
3081,O=C(O)COc1ccc([N+](=O)[O-])cc1,O,0,0,2.893,[2.893],"[Hunt et al.. J. Chem. Inf. Model, 2020, 60 (6), 2989-2997.]",carboxylic acid,water
3082,CS(=O)(=O)c1ccccc1[NH3+],O,0,0,0.33,[0.33],"[Hunt et al.. J. Chem. Inf. Model, 2020, 60 (6), 2989-2997.]",protonated amine,water
3083,Cc1cc([NH3+])ccc1Br,O,0,0,4.05,[4.05],"[Hunt et al.. J. Chem. Inf. Model, 2020, 60 (6), 2989-2997.]",protonated amine,water
3084,O=S(=O)(NS(=O)(=O)c1ccc(Cl)cc1)c1ccc(Cl)cc1,CN(C)C=O,2725-55-5,4-chloro-N-(4-chlorophenyl)sulfonylbenzenesulfonamide,3.46,[3.46],"[Kutt et al., Eur. J. Org. Chem., 2021, 2021 (9), 1407-1419.]",amine,DMF
3085,C[C@H]([NH3+])c1ccc(F)cc1,O,0,0,9.22,[9.22],"[Hunt et al.. J. Chem. Inf. Model, 2020, 60 (6), 2989-2997.]",protonated amine,water
3086,O=[N+]([O-])c1ccc(O)c(Cl)c1,O,0,0,5.6,[5.6],"[Hunt et al.. J. Chem. Inf. Model, 2020, 60 (6), 2989-2997.]",phenol,water
3087,C[C@@H](CN1c2ccccc2CCc2ccccc21)C[NH+](C)C,O,0,0,9.4,[9.4],"[Hunt et al.. J. Chem. Inf. Model, 2020, 60 (6), 2989-2997.]",protonated amine,water
3088,CCCC[NH3+],CS(=O)C,-,butylazanium,11.1,[11.1],"[Tshepelvitsh et al., Eur. J. Org. Chem., 2019, 6735-6748.]",protonated amine,DMSO
3089,COc1cc2ccccc2cc1C(=O)O,O,0,0,3.8,[3.8],"[Hunt et al.. J. Chem. Inf. Model, 2020, 60 (6), 2989-2997.]",carboxylic acid,water
3090,NS(=O)(=O)c1ccc(Cl)cc1,O,98-64-6,4-chlorobenzenesulfonamide,9.79,[9.79],"[Kutt et al., Eur. J. Org. Chem., 2021, 2021 (9), 1407-1419.]",amine,water
3091,C[C@H]([NH3+])c1ccc([N+](=O)[O-])cc1,O,0,0,8.5,[8.5],"[Hunt et al.. J. Chem. Inf. Model, 2020, 60 (6), 2989-2997.]",protonated amine,water
3092,Cc1cc(C)c(/N=N/c2c(C)cc(O)cc2C)c(C)c1,O,0,0,8.2,[8.2],"[Hunt et al.. J. Chem. Inf. Model, 2020, 60 (6), 2989-2997.]",phenol,water
3093,CS(=O)(=O)NC(=O)c1cc(Oc2ccc(C(F)(F)F)cc2Cl)ccc1[N+](=O)[O-],O,0,0,2.83,[2.83],"[Hunt et al.. J. Chem. Inf. Model, 2020, 60 (6), 2989-2997.]",amine,water
3094,Cc1ccccc1[NH2+]C1CCCC1,O,0,0,5.07,[5.07],"[Hunt et al.. J. Chem. Inf. Model, 2020, 60 (6), 2989-2997.]",protonated amine,water
3095,c1ccc([NH2+][C@H]2CCc3ccccc32)cc1,O,0,0,1.8,[1.8],"[Hunt et al.. J. Chem. Inf. Model, 2020, 60 (6), 2989-2997.]",protonated amine,water
3096,COc1ccccc1C(=[NH2+])c1ccccc1,O,0,0,7.29,[7.29],"[Hunt et al.. J. Chem. Inf. Model, 2020, 60 (6), 2989-2997.]",protonated amine,water
3097,Cc1ccc([C@@H](O)C[NH2+]C(C)C)cc1,O,0,0,9.35,[9.35],"[Hunt et al.. J. Chem. Inf. Model, 2020, 60 (6), 2989-2997.]",protonated amine,water
3098,Oc1cccc2ccncc12,O,0,0,8.42,[8.42],"[Hunt et al.. J. Chem. Inf. Model, 2020, 60 (6), 2989-2997.]",phenol,water
3099,CC(C)[P@@H](=O)O,O,0,0,3.56,[3.56],"[Hunt et al.. J. Chem. Inf. Model, 2020, 60 (6), 2989-2997.]",acidic hydroxyl,water
3100,O=C(O)CS,O,0,0,10.4,[10.4],"[Hunt et al.. J. Chem. Inf. Model, 2020, 60 (6), 2989-2997.]",carboxylic acid,water
3101,CC1(C)S[C@@H]2[C@H](NC(=O)[C@H]([NH3+])c3ccccc3)C(=O)N2[C@H]1C(=O)O,O,0,0,5.105,"[2.51, 7.7]","[Hunt et al.. J. Chem. Inf. Model, 2020, 60 (6), 2989-2997. ,   Hunt et al.. J. Chem. Inf. Model, 2020, 60 (6), 2989-2997.]",protonated amine,water
3102,CCCCCC[NH2+]CCCCCC,O,0,0,11.01,[11.01],"[Hunt et al.. J. Chem. Inf. Model, 2020, 60 (6), 2989-2997.]",protonated amine,water
3103,CC[NH2+]CC,O,0,0,10.98,"[10.98, 10.98]","[Hunt et al.. J. Chem. Inf. Model, 2020, 60 (6), 2989-2997. ,   Tshepelvitsh et al., Eur. J. Org. Chem., 2019, 6735-6748.]",protonated amine,water
3104,Cl,O,7647-01-0,chlorane,-5.9,"[-5.9, -5.9]","[Kutt et al., Tetrahedron Lett., 2018., Kutt et al., Eur. J. Org. Chem., 2021, 2021 (9), 1407-1419.]",inorganic,water
3105,[NH3+]c1ccc(C2CCCCC2)cc1,O,0,0,4.96,[4.96],"[Hunt et al.. J. Chem. Inf. Model, 2020, 60 (6), 2989-2997.]",protonated amine,water
3106,O=[N+]([O-])c1ccc(S(=O)(=O)Nc2ccccc2)cc1,O,0,0,7.42,[7.42],"[Hunt et al.. J. Chem. Inf. Model, 2020, 60 (6), 2989-2997.]",amine,water
3107,COC(=O)C[C@](C)(Cc1ccc([N+](=O)[O-])cc1)C(=O)O,O,0,0,4.4,[4.4],"[Hunt et al.. J. Chem. Inf. Model, 2020, 60 (6), 2989-2997.]",carboxylic acid,water
3108,C[NH+](C)CCN(Cc1ccsc1)c1ccccn1,O,0,0,8.9,[8.9],"[Hunt et al.. J. Chem. Inf. Model, 2020, 60 (6), 2989-2997.]",protonated amine,water
3109,CSc1c(I)cc([NH3+])cc1I,O,0,0,1.15,[1.15],"[Hunt et al.. J. Chem. Inf. Model, 2020, 60 (6), 2989-2997.]",protonated amine,water
3110,CC(C)[C@@H]1CC[C@@H](C)C[C@@H]1[NH3+],O,0,0,10.35,[10.35],"[Hunt et al.. J. Chem. Inf. Model, 2020, 60 (6), 2989-2997.]",protonated amine,water
3111,C[NH+](C)CCC=C1c2ccccc2CCc2ccccc21,O,0,0,9.4,[9.4],"[Hunt et al.. J. Chem. Inf. Model, 2020, 60 (6), 2989-2997.]",protonated amine,water
3112,C1=CC=[N+]C=C1,C1CCOC1,16969-45-2,pyridin-1-ium,5.5,[5.5],"[Kutt et al., Tetrahedron Lett., 2018.]",protonated amine,THF
3113,CC(C)(C)N[P+](N1CCCC1)(N1CCCC1)N1CCCC1,O,-,(tert-butylamino)-tripyrrolidin-1-ylphosphanium,17.5,[17.5],"[Tshepelvitsh et al., Eur. J. Org. Chem., 2019, 6735-6748.]",amine,water
3114,COc1nc(C)nc(NC(=O)NS(=O)(=O)c2ccccc2Cl)n1,O,0,0,3.4,[3.4],"[Hunt et al.. J. Chem. Inf. Model, 2020, 60 (6), 2989-2997.]",amine,water
3115,CC(C)C[NH2+]CC(C)C,O,0,0,10.91,[10.91],"[Hunt et al.. J. Chem. Inf. Model, 2020, 60 (6), 2989-2997.]",protonated amine,water
3116,COc1cccc(C[NH3+])c1,O,0,0,9.15,[9.15],"[Hunt et al.. J. Chem. Inf. Model, 2020, 60 (6), 2989-2997.]",protonated amine,water
3117,C[C@H]([NH3+])c1ccccc1Cl,O,0,0,8.8,[8.8],"[Hunt et al.. J. Chem. Inf. Model, 2020, 60 (6), 2989-2997.]",protonated amine,water
3118,Oc1ccnnc1,O,0,0,8.72,[8.72],"[Hunt et al.. J. Chem. Inf. Model, 2020, 60 (6), 2989-2997.]",phenol,water
3119,O=C(O)c1ccc(Cl)c(Cl)c1,CC#N,51-44-5,"3,4-dichlorobenzoic acid",19,[19.0],"[Eckert et al., J. Comput. Chem., 2009, 30, 799-810.]",carboxylic acid,acetonitrile
3120,[NH3+]c1ccc(Cc2ccc([N+](=O)[O-])cc2)cc1,O,0,0,4.45,[4.45],"[Hunt et al.. J. Chem. Inf. Model, 2020, 60 (6), 2989-2997.]",protonated amine,water
3121,O=C([O-])[C@H](Cc1ccccc1)N1CCC(C[NH+]2CCC(Oc3ccc(Cl)c(Cl)c3)CC2)CC1,O,0,0,9.25,[9.25],"[Hunt et al.. J. Chem. Inf. Model, 2020, 60 (6), 2989-2997.]",protonated amine,water
3122,C[C@H]1CCCC(C)(C)[NH2+]1,O,0,0,11.21,[11.21],"[Hunt et al.. J. Chem. Inf. Model, 2020, 60 (6), 2989-2997.]",protonated amine,water