,Solute SMILES,Solvent SMILES,Solute CAS,Solute IUPAC,pKa (avg),pKa (all),Source (all),Acid type,Solvent name
3123,CC[NH+](CC)CCOC(=O)[C@@H](Cc1cccc2ccccc12)C[C@@H]1CCCO1,O,0,0,9.1,[9.1],"[Hunt et al.. J. Chem. Inf. Model, 2020, 60 (6), 2989-2997.]",protonated amine,water
3124,CC(C)c1cc(C(C)C)c(-c2cc3ccccc3c3c2OP(=O)(O)Oc2c(-c4c(C(C)C)cc(C(C)C)cc4C(C)C)cc4ccccc4c2-3)c(C(C)C)c1,CC#N,791616-63-2,"13-hydroxy-10,16-bis[2,4,6-tri(propan-2-yl)phenyl]-12,14-dioxa-135-phosphapentacyclo[13.8.0.02,11.03,8.018,23]tricosa-1(15),2(11),3,5,7,9,16,18,20,22-decaene 13-oxide",13.615,"[13.63, 13.6]","[Kutt et al., Eur. J. Org. Chem., 2021, 2021 (9), 1407-1419., Paenurk et al., Chem. Sci., 2017, 8, 6964-6973.]",phosphoric acid,acetonitrile
3125,O[C@@H](C(F)(F)C(F)(F)F)C(F)(F)C(F)(F)C(F)(F)F,O,0,0,10.48,[10.48],"[Hunt et al.. J. Chem. Inf. Model, 2020, 60 (6), 2989-2997.]",hydroxyl alcohol,water
3126,CC(C)[NH2+]C(C)C,O,0,0,10.96,[10.96],"[Hunt et al.. J. Chem. Inf. Model, 2020, 60 (6), 2989-2997.]",protonated amine,water
3127,NS(=O)(=O)c1ccc([N+](=O)[O-])cc1,CN(C)C=O,6325-93-5,4-nitrobenzenesulfonamide,15.49,[15.49],"[Kutt et al., Eur. J. Org. Chem., 2021, 2021 (9), 1407-1419.]",amine,DMF
3128,C[NH+](C)CC(F)(F)F,O,0,0,4.8,[4.8],"[Hunt et al.. J. Chem. Inf. Model, 2020, 60 (6), 2989-2997.]",protonated amine,water
3129,c1ccc(CCC[NH2+]C(CC2CCCCC2)CC2CCCCC2)cc1,O,0,0,7.8,[7.8],"[Hunt et al.. J. Chem. Inf. Model, 2020, 60 (6), 2989-2997.]",protonated amine,water
3130,O=C(O)c1ccc([N+](=O)[O-])cc1,O,0,0,3.42,[3.42],"[Hunt et al.. J. Chem. Inf. Model, 2020, 60 (6), 2989-2997.]",carboxylic acid,water
3131,[NH3+]c1cc(I)c2ccccc2c1,O,0,0,3.41,[3.41],"[Hunt et al.. J. Chem. Inf. Model, 2020, 60 (6), 2989-2997.]",protonated amine,water
3132,O=C(O)[C@H]1CCCC[C@@H]1O,O,0,0,4.34,[4.34],"[Hunt et al.. J. Chem. Inf. Model, 2020, 60 (6), 2989-2997.]",carboxylic acid,water
3133,Oc1cccnn1,O,0,0,10.5,[10.5],"[Hunt et al.. J. Chem. Inf. Model, 2020, 60 (6), 2989-2997.]",phenol,water
3134,c1cc(C[NH+]2CCCCC2)ccn1,O,0,0,7.88,[7.88],"[Hunt et al.. J. Chem. Inf. Model, 2020, 60 (6), 2989-2997.]",protonated amine,water
3135,Cc1ccc(S(N)(=O)=O)cc1,CC#N,70-55-3,4-methylbenzenesulfonamide,25.885,"[24.82, 26.95]","[Eckert et al., J. Comput. Chem., 2009, 30, 799-810., Kutt et al., Eur. J. Org. Chem., 2021, 2021 (9), 1407-1419.]",amine,acetonitrile
3136,OC(C(F)(F)C(F)(F)C(F)(F)F)C(F)(F)C(F)(F)C(F)(F)F,O,0,0,10.52,[10.52],"[Hunt et al.. J. Chem. Inf. Model, 2020, 60 (6), 2989-2997.]",hydroxyl alcohol,water
3137,O=C(O)/C=C\C(=O)O,O,0,0,2,[2.0],"[Hunt et al.. J. Chem. Inf. Model, 2020, 60 (6), 2989-2997.]",carboxylic acid,water
3138,N#CCC[NH3+],O,0,0,7.75,[7.75],"[Hunt et al.. J. Chem. Inf. Model, 2020, 60 (6), 2989-2997.]",protonated amine,water
3139,c1ccc([NH+](c2ccccc2)c2ccccc2)cc1,CC#N,-,triphenylazanium,1.28,[1.28],"[Tshepelvitsh et al., Eur. J. Org. Chem., 2019, 6735-6748.]",protonated amine,acetonitrile
3140,[NH3+]C12CC3CC(CC(C3)C1)C2,O,0,0,10.68,[10.68],"[Hunt et al.. J. Chem. Inf. Model, 2020, 60 (6), 2989-2997.]",protonated amine,water
3141,CC(C)C[NH+]1CCCC1,O,0,0,10.38,[10.38],"[Hunt et al.. J. Chem. Inf. Model, 2020, 60 (6), 2989-2997.]",protonated amine,water
3142,N#CC(c1c(F)c(F)c(F)c(F)c1F)c1c(Cl)c(F)c(Cl)c(F)c1Cl,CC#N,64934-69-6,"2-(2,3,4,5,6-pentafluorophenyl)-2-(2,4,6-trichloro-3,5-difluorophenyl)acetonitrile",20.13,"[20.13, 20.13, 20.13, 20.13]","[Kutt et al., Eur. J. Org. Chem., 2021, 2021 (9), 1407-1419., Eckert et al., J. Comput. Chem., 2009, 30, 799-810., Kutt et al., Eur. J. Org. Chem., 2021, 2021 (9), 1407-1419., Paenurk et al., Chem. Sci., 2017, 8, 6964-6973.]",C-H acid,acetonitrile
3143,C=CCc1c(C)nc(N)[nH+]c1C,O,0,0,5.1,[5.1],"[Hunt et al.. J. Chem. Inf. Model, 2020, 60 (6), 2989-2997.]",protonated amine,water
3144,O=C(CCC[NH+]1CCC(O)(c2ccc(Cl)cc2)CC1)c1ccc(F)cc1,O,0,0,8.75,[8.75],"[Hunt et al.. J. Chem. Inf. Model, 2020, 60 (6), 2989-2997.]",protonated amine,water
3145,Cc1nn(-c2ccccc2)c(NC(=O)NS(=O)(=O)c2ccc(Cl)cc2)c1C#N,O,0,0,2.3,[2.3],"[Hunt et al.. J. Chem. Inf. Model, 2020, 60 (6), 2989-2997.]",amine,water
3146,CC[C@@H](C)[NH2+][C@H](C)CC,O,0,0,10.91,[10.91],"[Hunt et al.. J. Chem. Inf. Model, 2020, 60 (6), 2989-2997.]",protonated amine,water
3147,CC(C)[C@H]([NH3+])C(=O)[O-],O,0,0,9.74,[9.74],"[Hunt et al.. J. Chem. Inf. Model, 2020, 60 (6), 2989-2997.]",protonated amine,water
3148,CC[C@@H](C)Nc1nc(C)cc(C)[nH+]1,O,0,0,5.12,[5.12],"[Hunt et al.. J. Chem. Inf. Model, 2020, 60 (6), 2989-2997.]",protonated amine,water
3149,Cc1nc(N)[nH+]c(C)c1C(N)=O,O,0,0,3.31,[3.31],"[Hunt et al.. J. Chem. Inf. Model, 2020, 60 (6), 2989-2997.]",protonated amine,water
3150,C[NH+](C)c1ccc([N+](C)(C)C)cc1,O,0,0,2.64,[2.64],"[Hunt et al.. J. Chem. Inf. Model, 2020, 60 (6), 2989-2997.]",protonated amine,water
3151,OCC[NH+](CCO)CCc1ccccc1,O,0,0,7.6,[7.6],"[Hunt et al.. J. Chem. Inf. Model, 2020, 60 (6), 2989-2997.]",protonated amine,water
3152,[NH3+]c1cccc2cc3ccccc3cc12,O,0,0,4.1,[4.1],"[Hunt et al.. J. Chem. Inf. Model, 2020, 60 (6), 2989-2997.]",protonated amine,water
3153,[NH3+]CC(Cl)=C(Cl)Cl,O,0,0,7.28,[7.28],"[Hunt et al.. J. Chem. Inf. Model, 2020, 60 (6), 2989-2997.]",protonated amine,water
3154,CC(C)(O)c1ccccc1CC[C@@H](SCC1(CC(=O)[O-])CC1)c1cccc(/C=C/c2ccc3ccc(Cl)cc3[nH+]2)c1,O,0,0,5.6,[5.6],"[Hunt et al.. J. Chem. Inf. Model, 2020, 60 (6), 2989-2997.]",protonated amine,water
3155,CC1(C)CC(=O)CC(C)(C)[NH2+]1,O,0,0,7.9,[7.9],"[Hunt et al.. J. Chem. Inf. Model, 2020, 60 (6), 2989-2997.]",protonated amine,water
3156,OCC[NH+](CCO)Cc1ccc(F)cc1,O,0,0,6.8,[6.8],"[Hunt et al.. J. Chem. Inf. Model, 2020, 60 (6), 2989-2997.]",protonated amine,water
3157,CC(C)C[N@@H+](CC[N+]1(C)CCCCC1)c1ccccc1,O,0,0,3.02,[3.02],"[Hunt et al.. J. Chem. Inf. Model, 2020, 60 (6), 2989-2997.]",protonated amine,water
3158,CC(=O)O,CS(=O)C,64-19-7,acetic acid,12.45,"[12.6, 12.3]","[Kutt et al., Tetrahedron Lett., 2018., Kutt et al., Eur. J. Org. Chem., 2021, 2021 (9), 1407-1419.]",carboxylic acid,DMSO
3159,Cc1ccccc1O,CC#N,95-48-7,2-methylphenol,27.5,[27.5],"[Eckert et al., J. Comput. Chem., 2009, 30, 799-810.]",phenol,acetonitrile
3160,CCOC(=O)c1cc([NH3+])ccc1[N+](=O)[O-],O,0,0,-0.11,[-0.11],"[Hunt et al.. J. Chem. Inf. Model, 2020, 60 (6), 2989-2997.]",protonated amine,water
3161,O=S(=O)(NS(=O)(=NS(=O)(=O)C(F)(F)F)c1ccc(Cl)cc1)c1ccc(Cl)cc1,CC#N,174788-95-5,-,4.015,"[4.0, 4.03]","[Kutt et al., Eur. J. Org. Chem., 2021, 2021 (9), 1407-1419., Paenurk et al., Chem. Sci., 2017, 8, 6964-6973.]",amine,acetonitrile
3162,O=S(=O)(O)C(F)(F)F,CS(=O)C,1493-13-6,trifluoromethanesulfonic acid,-14.3,[-14.3],"[Kutt et al., Tetrahedron Lett., 2018.]",sulfonic acid,DMSO
3163,COc1c(N2CC[NH2+][C@H](C)C2)c(F)cc2c(=O)c(C(=O)O)cn(C3CC3)c12,O,0,0,7.615,"[6.05, 9.18]","[Hunt et al.. J. Chem. Inf. Model, 2020, 60 (6), 2989-2997. ,   Hunt et al.. J. Chem. Inf. Model, 2020, 60 (6), 2989-2997.]",protonated amine,water
3164,O=C(O)c1ccccc1,CN(C)C=O,65-85-0,benzoic acid,12.3,[12.3],"[Kutt et al., Eur. J. Org. Chem., 2021, 2021 (9), 1407-1419.]",carboxylic acid,DMF
3165,N#CC(C#N)c1c(C(F)(F)F)c(C(F)(F)F)c(C(F)(F)F)c(C(F)(F)F)c1C(F)(F)F,C(CCl)Cl,1018330-44-3,"2-[2,3,4,5,6-pentakis(trifluoromethyl)phenyl]propanedinitrile",42.2,[42.2],"[Paenurk et al., Chem. Sci., 2017, 8, 6964-6973.]",C-H acid,DCE
3166,N#CC(c1ccc([N+](=O)[O-])cc1)c1ccc([N+](=O)[O-])cc1,CC#N,-,"2,2-bis(4-nitrophenyl)acetonitrile",19,[19.0],"[Eckert et al., J. Comput. Chem., 2009, 30, 799-810.]",C-H acid,acetonitrile
3167,COc1cc(OC)nc(Oc2cccc(Oc3nc(OC)cc(OC)n3)c2C(=O)O)n1,O,0,0,3.55,[3.55],"[Hunt et al.. J. Chem. Inf. Model, 2020, 60 (6), 2989-2997.]",carboxylic acid,water
3168,Oc1c(F)c(F)cc(F)c1F,O,769-39-1,"2,3,5,6-tetrafluorophenol",5.67,[5.67],"[Kutt et al., Eur. J. Org. Chem., 2021, 2021 (9), 1407-1419.]",phenol,water
3169,CC(C)[NH2+]C[Si](C)(C)C,O,0,0,10.8,[10.8],"[Hunt et al.. J. Chem. Inf. Model, 2020, 60 (6), 2989-2997.]",protonated amine,water
3170,CN(C)CCCC[NH+](C)C,O,-,4-(dimethylamino)butyl-dimethylazanium,10.8,[10.8],"[Tshepelvitsh et al., Eur. J. Org. Chem., 2019, 6735-6748.]",protonated amine,water
3171,Oc1cc(Cl)cc(Cl)c1,CC#N,591-35-5,"3,5-dichlorophenol",23.3,[23.3],"[Eckert et al., J. Comput. Chem., 2009, 30, 799-810.]",phenol,acetonitrile
3172,[NH3+]c1ccc(-c2cc(=O)c3c(ccc4ccccc43)o2)cc1,O,0,0,2.97,[2.97],"[Hunt et al.. J. Chem. Inf. Model, 2020, 60 (6), 2989-2997.]",protonated amine,water
3173,CC1=CCCC[C@@H]1[NH3+],O,0,0,10.37,[10.37],"[Hunt et al.. J. Chem. Inf. Model, 2020, 60 (6), 2989-2997.]",protonated amine,water
3174,[NH3+]c1ccc(OC(F)(F)C(F)F)cc1,O,0,0,3.98,[3.98],"[Hunt et al.. J. Chem. Inf. Model, 2020, 60 (6), 2989-2997.]",protonated amine,water
3175,COc1cccc([NH3+])c1,O,0,0,4.2,[4.2],"[Hunt et al.. J. Chem. Inf. Model, 2020, 60 (6), 2989-2997.]",protonated amine,water
3176,O=C(O)C(F)(F)F,O,0,0,0.3,[0.3],"[Hunt et al.. J. Chem. Inf. Model, 2020, 60 (6), 2989-2997.]",carboxylic acid,water
3177,C[C@@H](CCCC(=O)O)c1ccccc1,O,0,0,4.8,[4.8],"[Hunt et al.. J. Chem. Inf. Model, 2020, 60 (6), 2989-2997.]",carboxylic acid,water
3178,Clc1ccc(CO[C@H](Cn2cc[nH+]c2)c2ccc(Cl)cc2Cl)c(Cl)c1,O,0,0,6.4,[6.4],"[Hunt et al.. J. Chem. Inf. Model, 2020, 60 (6), 2989-2997.]",protonated amine,water
3179,COC(=O)C1c2ccccc2-c2ccccc21,CC#N,3002-30-0,methyl 9H-fluorene-9-carboxylate,23.534,"[23.53, 23.53, 23.54, 23.54, 23.53]","[Eckert et al., J. Comput. Chem., 2009, 30, 799-810., Paenurk et al., Chem. Sci., 2017, 8, 6964-6973., Kutt et al., Eur. J. Org. Chem., 2021, 2021 (9), 1407-1419., Kutt et al., Eur. J. Org. Chem., 2021, 2021 (9), 1407-1419., Paenurk et al., Chem. Sci., 2017, 8, 6964-6973.]",C-H acid,acetonitrile
3180,CCOC(=O)N1CCC([NH2+]c2cc(Cl)ccn2)CC1,O,0,0,5.3,[5.3],"[Hunt et al.. J. Chem. Inf. Model, 2020, 60 (6), 2989-2997.]",protonated amine,water
3181,COC(=O)[C@@H]([C@H](C(=O)O)C(C)(C)C)C(C)(C)C,O,0,0,5.57,[5.57],"[Hunt et al.. J. Chem. Inf. Model, 2020, 60 (6), 2989-2997.]",carboxylic acid,water
3182,c1ccc([C@@H]2C[NH+]3CCC2CC3)cc1,O,0,0,10.23,[10.23],"[Hunt et al.. J. Chem. Inf. Model, 2020, 60 (6), 2989-2997.]",protonated amine,water
3183,O=C(O)c1ccc2ncccc2c1,O,0,0,0.1,[0.1],"[Hunt et al.. J. Chem. Inf. Model, 2020, 60 (6), 2989-2997.]",carboxylic acid,water
3184,Oc1c(F)c(F)c(-c2c(F)c(F)c(F)c(F)c2F)c(F)c1F,CC#N,2894-87-3,"2,3,5,6-tetrafluoro-4-(2,3,4,5,6-pentafluorophenyl)phenol",18.105,"[18.11, 18.1, 18.1, 18.11]","[Eckert et al., J. Comput. Chem., 2009, 30, 799-810., Kutt et al., Eur. J. Org. Chem., 2021, 2021 (9), 1407-1419., Kutt et al., Eur. J. Org. Chem., 2021, 2021 (9), 1407-1419., Paenurk et al., Chem. Sci., 2017, 8, 6964-6973.]",phenol,acetonitrile
3185,C[NH+](C)[C@@H]1CCCC[C@H]1O,O,0,0,10.32,[10.32],"[Hunt et al.. J. Chem. Inf. Model, 2020, 60 (6), 2989-2997.]",protonated amine,water
3186,CC(=O)Nc1c(F)c(F)c(F)c(F)c1F,CS(=O)C,653-22-5,"N-(2,3,4,5,6-pentafluorophenyl)acetamide",14.3,[14.3],"[Kutt et al., Eur. J. Org. Chem., 2021, 2021 (9), 1407-1419.]",amine,DMSO
3187,Cc1cccc(O)c1C,O,0,0,10.5,[10.5],"[Hunt et al.. J. Chem. Inf. Model, 2020, 60 (6), 2989-2997.]",phenol,water
3188,N[C@@H](CCC(=O)N[C@@H](CS)C(=O)NCC(=O)O)C(=O)O,O,0,0,8.56,[8.56],"[Hunt et al.. J. Chem. Inf. Model, 2020, 60 (6), 2989-2997.]",carboxylic acid,water
3189,SCc1ccccc1,O,0,0,9.43,[9.43],"[Hunt et al.. J. Chem. Inf. Model, 2020, 60 (6), 2989-2997.]",thiol,water
3190,CCN(CC)CCNC(=O)c1ccc(NS(C)(=O)=O)cc1,O,0,0,7.52,[7.52],"[Hunt et al.. J. Chem. Inf. Model, 2020, 60 (6), 2989-2997.]",amine,water
3191,O=[N+]([O-])c1cc(O)cc([N+](=O)[O-])c1,O,0,0,6.69,[6.69],"[Hunt et al.. J. Chem. Inf. Model, 2020, 60 (6), 2989-2997.]",phenol,water
3192,CCC(=O)C(CC[NH+](C)C)(c1ccccc1)c1ccccc1,O,0,0,9.18,[9.18],"[Hunt et al.. J. Chem. Inf. Model, 2020, 60 (6), 2989-2997.]",protonated amine,water
3193,O=C(Nc1ccc(Cl)c(S(=O)(=O)N2CC[NH2+]CC2)c1O)Nc1cccc(F)c1Cl,O,0,0,7.2,"[8.5, 5.9]","[Hunt et al.. J. Chem. Inf. Model, 2020, 60 (6), 2989-2997. ,   Hunt et al.. J. Chem. Inf. Model, 2020, 60 (6), 2989-2997.]",protonated amine,water
3194,COc1ccc(C(=[NH2+])c2ccccc2)c(OC)c1,O,0,0,8.3,[8.3],"[Hunt et al.. J. Chem. Inf. Model, 2020, 60 (6), 2989-2997.]",protonated amine,water
3195,O=[N+]([O-])c1ccc([NH+]2CCCCC2)c([N+](=O)[O-])c1,O,0,0,-0.38,[-0.38],"[Hunt et al.. J. Chem. Inf. Model, 2020, 60 (6), 2989-2997.]",protonated amine,water
3196,O=C(O)C(CO)(CO)CO,O,0,0,4.46,[4.46],"[Hunt et al.. J. Chem. Inf. Model, 2020, 60 (6), 2989-2997.]",carboxylic acid,water
3197,O=C1c2ccc(O)cc2C(=O)c2ccc(O)cc21,O,0,0,6.22,[6.22],"[Hunt et al.. J. Chem. Inf. Model, 2020, 60 (6), 2989-2997.]",phenol,water
3198,C[C@@H](O)C[N@H+](CCO)C(C)(C)C,O,0,0,9.2,[9.2],"[Hunt et al.. J. Chem. Inf. Model, 2020, 60 (6), 2989-2997.]",protonated amine,water
3199,CCCC[NH+]1CCCC1,O,0,0,10.36,[10.36],"[Hunt et al.. J. Chem. Inf. Model, 2020, 60 (6), 2989-2997.]",protonated amine,water
3200,CCCOc1cccc(C(=O)O)c1,O,0,0,4.2,[4.2],"[Hunt et al.. J. Chem. Inf. Model, 2020, 60 (6), 2989-2997.]",carboxylic acid,water
3201,O=C(O)c1cc(O)c(O)c(O)c1,O,0,0,4.21,[4.21],"[Hunt et al.. J. Chem. Inf. Model, 2020, 60 (6), 2989-2997.]",carboxylic acid,water
3202,C=CC[NH2+]CC=C,O,0,0,9.29,[9.29],"[Hunt et al.. J. Chem. Inf. Model, 2020, 60 (6), 2989-2997.]",protonated amine,water
3203,O=S(=O)(NS(=O)(=O)C(F)(F)C(F)(F)C(F)(F)F)C(F)(F)C(F)(F)C(F)(F)F,C(CCl)Cl,152894-12-7,"1,1,2,2,3,3,3-heptafluoro-N-(1,1,2,2,3,3,3-heptafluoropropylsulfonyl)propane-1-sulfonamide",32.7,[32.7],"[Paenurk et al., Chem. Sci., 2017, 8, 6964-6973.]",amine,DCE
3204,COC(=O)[C@@](C)(CC(=O)O)Cc1ccc([N+](=O)[O-])cc1,O,0,0,4.45,[4.45],"[Hunt et al.. J. Chem. Inf. Model, 2020, 60 (6), 2989-2997.]",carboxylic acid,water
3205,[NH3+]c1cccc2ccccc12,CC#N,70450-98-5,naphthalen-1-ylazanium,9.77,[9.77],"[Lokov et al., Eur. J. Org. Chem., 2017, 30, 4475-4489.]",protonated amine,acetonitrile
3206,O=C(O)Cc1ccc([N+](=O)[O-])cc1[N+](=O)[O-],O,0,0,3.502,[3.502],"[Hunt et al.. J. Chem. Inf. Model, 2020, 60 (6), 2989-2997.]",carboxylic acid,water
3207,O=C(c1cc([N+](=O)[O-])cc(C(F)(F)F)c1)N(O)c1ccccc1,O,0,0,7.85,[7.85],"[Hunt et al.. J. Chem. Inf. Model, 2020, 60 (6), 2989-2997.]",acidic hydroxyl,water
3208,CC(=O)CS,O,0,0,7.86,[7.86],"[Hunt et al.. J. Chem. Inf. Model, 2020, 60 (6), 2989-2997.]",thiol,water
3209,C=C(CC)C(=O)c1ccc(OCC(=O)O)c(Cl)c1Cl,O,0,0,3.1,[3.1],"[Hunt et al.. J. Chem. Inf. Model, 2020, 60 (6), 2989-2997.]",carboxylic acid,water
3210,COc1cccc(C[NH+](C)C)c1,O,0,0,9.04,[9.04],"[Hunt et al.. J. Chem. Inf. Model, 2020, 60 (6), 2989-2997.]",protonated amine,water
3211,[NH3+]CCc1c[nH]c2ccccc12,O,0,0,10.2,[10.2],"[Hunt et al.. J. Chem. Inf. Model, 2020, 60 (6), 2989-2997.]",protonated amine,water
3212,O=[N+]([O-])c1ccc(O)cc1[N+](=O)[O-],CC#N,577-71-9,"3,4-dinitrophenol",17.9,[17.9],"[Eckert et al., J. Comput. Chem., 2009, 30, 799-810.]",phenol,acetonitrile
3213,CN(C)[P+](Nc1ccccc1)(N(C)C)N(C)C,CS(=O)C,-,anilino-tris(dimethylamino)phosphanium,11.1,[11.1],"[Tshepelvitsh et al., Eur. J. Org. Chem., 2019, 6735-6748.]",amine,DMSO
3214,O=[N+]([O-])c1ccc([NH2+]Cc2ccccc2)c([N+](=O)[O-])c1,O,0,0,-4.9,[-4.9],"[Hunt et al.. J. Chem. Inf. Model, 2020, 60 (6), 2989-2997.]",protonated amine,water
3215,CCn1cc(C(=O)[O-])c(=O)c2cc(F)c(N3CC[NH2+]CC3)nc21,O,0,0,8.76,[8.76],"[Hunt et al.. J. Chem. Inf. Model, 2020, 60 (6), 2989-2997.]",protonated amine,water
3216,[NH2+]=C(c1ccccc1)c1ccccc1Cl,O,0,0,5.59,[5.59],"[Hunt et al.. J. Chem. Inf. Model, 2020, 60 (6), 2989-2997.]",protonated amine,water
3217,CC(C)CC[NH3+],O,0,0,10.6,[10.6],"[Hunt et al.. J. Chem. Inf. Model, 2020, 60 (6), 2989-2997.]",protonated amine,water
3218,COc1ccc(-c2cc3ccccc3c3c2OP(=O)(NS(=O)(=O)C(F)(F)F)Oc2c(-c4ccc(OC)cc4)cc4ccccc4c2-3)cc1,CC#N,1486486-92-3,-,6.375,"[6.35, 6.4]","[Kutt et al., Eur. J. Org. Chem., 2021, 2021 (9), 1407-1419., Paenurk et al., Chem. Sci., 2017, 8, 6964-6973.]",amine,acetonitrile
3219,O=C(O)[C@H](O)c1cccc(Br)c1,O,0,0,3.23,[3.23],"[Hunt et al.. J. Chem. Inf. Model, 2020, 60 (6), 2989-2997.]",carboxylic acid,water
3220,O=C(O)c1ccc(Cl)c([N+](=O)[O-])c1,CC#N,96-99-1,4-chloro-3-nitrobenzoic acid,18.5,[18.5],"[Eckert et al., J. Comput. Chem., 2009, 30, 799-810.]",carboxylic acid,acetonitrile
3221,Cc1cc(C)[nH+]c(N)n1,O,0,0,5,[5.0],"[Hunt et al.. J. Chem. Inf. Model, 2020, 60 (6), 2989-2997.]",protonated amine,water