,Solute SMILES,Solvent SMILES,Solute CAS,Solute IUPAC,pKa (avg),pKa (all),Source (all),Acid type,Solvent name
637,CN1CCN(c2cc3c(cc2F)c(=O)c(C(=O)O)cn3-c2ccc(F)cc2)CC1,O,0,0,5.81,[5.81],"[Hunt et al.. J. Chem. Inf. Model, 2020, 60 (6), 2989-2997.]",carboxylic acid,water
638,CC(C)[NH2+]C[C@H](O)c1ccc(F)c(F)c1,O,0,0,9.36,[9.36],"[Hunt et al.. J. Chem. Inf. Model, 2020, 60 (6), 2989-2997.]",protonated amine,water
639,OCc1ccccc1,O,0,0,15.44,[15.44],"[Hunt et al.. J. Chem. Inf. Model, 2020, 60 (6), 2989-2997.]",hydroxyl alcohol,water
640,CC[C@@](CC(=O)O)(C(=O)OC)c1ccccc1,O,0,0,4.46,[4.46],"[Hunt et al.. J. Chem. Inf. Model, 2020, 60 (6), 2989-2997.]",carboxylic acid,water
641,CCCNC(=O)NS(=O)(=O)c1ccc(Cl)cc1,O,0,0,4.69,[4.69],"[Hunt et al.. J. Chem. Inf. Model, 2020, 60 (6), 2989-2997.]",amine,water
642,[NH3+][C@@H]1CCCC[C@H]1O,O,0,0,9.53,[9.53],"[Hunt et al.. J. Chem. Inf. Model, 2020, 60 (6), 2989-2997.]",protonated amine,water
643,O=C(O)[C@H](Cc1ccccc1)[NH+]1CCC(CN2CCC(Oc3ccc(Cl)c(Cl)c3)CC2)CC1,O,0,0,3.1,[3.1],"[Hunt et al.. J. Chem. Inf. Model, 2020, 60 (6), 2989-2997.]",protonated amine,water
644,O=C(O)/C=C/c1ccccc1Cl,O,0,0,4.41,[4.41],"[Hunt et al.. J. Chem. Inf. Model, 2020, 60 (6), 2989-2997.]",carboxylic acid,water
645,NC1=[NH+][C@H](c2ccc(F)cc2)Nc2cccc(F)c21,O,0,0,9,[9.0],"[Hunt et al.. J. Chem. Inf. Model, 2020, 60 (6), 2989-2997.]",protonated amine,water
646,[NH3+]CCCC(Cl)(Cl)Cl,O,0,0,9.93,[9.93],"[Hunt et al.. J. Chem. Inf. Model, 2020, 60 (6), 2989-2997.]",protonated amine,water
647,C[C@H]1CC[N@H+](C)C(C)(C)C1,O,0,0,10.18,[10.18],"[Hunt et al.. J. Chem. Inf. Model, 2020, 60 (6), 2989-2997.]",protonated amine,water
648,Cc1ncoc1C(=O)O,O,0,0,2.88,[2.88],"[Hunt et al.. J. Chem. Inf. Model, 2020, 60 (6), 2989-2997.]",carboxylic acid,water
649,Nc1c([N+](=O)[O-])cc([N+](=O)[O-])cc1[N+](=O)[O-],O,489-98-5,"2,4,6-trinitroaniline",12.2,[12.2],"[Kutt et al., Eur. J. Org. Chem., 2021, 2021 (9), 1407-1419.]",amine,water
650,Clc1cccc(Cl)c1NC1=[NH+]CCN1,O,0,0,8.05,[8.05],"[Hunt et al.. J. Chem. Inf. Model, 2020, 60 (6), 2989-2997.]",protonated amine,water
651,C=C1C[C@]23C[C@@]1(O)CC[C@H]2[C@@]12C=C[C@H](O)[C@@](C)(C(=O)O1)[C@H]2[C@@H]3C(=O)O,O,0,0,4,[4.0],"[Hunt et al.. J. Chem. Inf. Model, 2020, 60 (6), 2989-2997.]",carboxylic acid,water
652,CCC[NH3+],CS(=O)C,,propylazanium,10.7,[10.7],"[Tshepelvitsh et al., Eur. J. Org. Chem., 2019, 6735-6748.]",protonated amine,DMSO
653,I,O,10034-85-2,iodane,-9.5,"[-9.5, -9.5]","[Kutt et al., Tetrahedron Lett., 2018., Kutt et al., Eur. J. Org. Chem., 2021, 2021 (9), 1407-1419.]",inorganic,water
654,CCc1ccc(CC(=O)O)cc1,O,0,0,4.37,[4.37],"[Hunt et al.. J. Chem. Inf. Model, 2020, 60 (6), 2989-2997.]",carboxylic acid,water
655,CN(C)[P+](Nc1ccccc1)(N(C)C)N(C)C,CC#N,-,anilino-tris(dimethylamino)phosphanium,21.26,[21.26],"[Tshepelvitsh et al., Eur. J. Org. Chem., 2019, 6735-6748.]",amine,acetonitrile
656,O=C(O)CCc1cccc(Cl)c1,O,0,0,4.59,[4.59],"[Hunt et al.. J. Chem. Inf. Model, 2020, 60 (6), 2989-2997.]",carboxylic acid,water
657,Cc1ccc(S(=O)(=O)NS(=O)(=O)c2ccc(C)cc2)cc1,CC#N,3695-00-9,4-methyl-N-(4-methylphenyl)sulfonylbenzenesulfonamide,11.97,"[11.97, 11.97, 11.97, 11.97]","[Eckert et al., J. Comput. Chem., 2009, 30, 799-810., Kutt et al., Eur. J. Org. Chem., 2021, 2021 (9), 1407-1419., Kutt et al., Eur. J. Org. Chem., 2021, 2021 (9), 1407-1419., Paenurk et al., Chem. Sci., 2017, 8, 6964-6973.]",amine,acetonitrile
658,CCC[NH2+][C@@H](C)C(=O)Nc1ccccc1C,O,0,0,7.9,[7.9],"[Hunt et al.. J. Chem. Inf. Model, 2020, 60 (6), 2989-2997.]",protonated amine,water
659,N#CC(c1c(F)c(F)c(F)c(F)c1F)c1c(F)c(F)c(C(F)(F)F)c(F)c1F,C(CCl)Cl,42238-35-7,"2-(2,3,4,5,6-pentafluorophenyl)-2-[2,3,5,6-tetrafluoro-4-(trifluoromethyl)phenyl]acetonitrile",52.3,"[52.3, 52.3]","[Kutt et al., Tetrahedron Lett., 2018., Paenurk et al., Chem. Sci., 2017, 8, 6964-6973.]",C-H acid,DCE
660,N#CC(c1c(F)c(F)nc(F)c1F)c1c(F)c(F)c(F)c(F)c1F,CS(=O)C,62325-51-3,"2-(2,3,4,5,6-pentafluorophenyl)-2-(2,3,5,6-tetrafluoropyridin-4-yl)acetonitrile",3.3,[3.3],"[Paenurk et al., Chem. Sci., 2017, 8, 6964-6973.]",C-H acid,DMSO
661,[NH3+][C@@H]1C=CCCC1,O,0,0,10.42,[10.42],"[Hunt et al.. J. Chem. Inf. Model, 2020, 60 (6), 2989-2997.]",protonated amine,water
662,c1ccc2c(c1)-c1cccc3c1C2c1ccccc1-3,CS(=O)C,205-94-7,fluoradene,10.5,[10.5],"[Kutt et al., Eur. J. Org. Chem., 2021, 2021 (9), 1407-1419.]",C-H acid,DMSO
663,C[NH+](C)CCOC(c1ccccc1)c1ccccc1,O,0,0,9.1,[9.1],"[Hunt et al.. J. Chem. Inf. Model, 2020, 60 (6), 2989-2997.]",protonated amine,water
664,O=C(O)c1ccc2cccccc1-2,O,0,0,5.5,[5.5],"[Hunt et al.. J. Chem. Inf. Model, 2020, 60 (6), 2989-2997.]",carboxylic acid,water
665,C[NH+](C)Cc1ccccn1,O,0,0,8.12,[8.12],"[Hunt et al.. J. Chem. Inf. Model, 2020, 60 (6), 2989-2997.]",protonated amine,water
666,CCCC(=O)OO,O,0,0,8.2,[8.2],"[Hunt et al.. J. Chem. Inf. Model, 2020, 60 (6), 2989-2997.]",acidic hydroxyl,water
667,C[NH2+]c1ccc(C)cc1C,O,0,0,4.56,[4.56],"[Hunt et al.. J. Chem. Inf. Model, 2020, 60 (6), 2989-2997.]",protonated amine,water
668,Cc1ccc(S(=O)(=O)NC(=O)N2CCC([NH+]3CCC(Oc4ccc(Cl)c(C)c4Cl)CC3)CC2)cc1,O,0,0,5.95,"[3.2, 8.7]","[Hunt et al.. J. Chem. Inf. Model, 2020, 60 (6), 2989-2997. ,   Hunt et al.. J. Chem. Inf. Model, 2020, 60 (6), 2989-2997.]",protonated amine,water
669,COc1cccc([C@@H](O)C[NH2+]C(C)C)c1,O,0,0,9.54,[9.54],"[Hunt et al.. J. Chem. Inf. Model, 2020, 60 (6), 2989-2997.]",protonated amine,water
670,C1CN=C2NCCC[NH+]2C1,CC#N,-,"2,3,4,5,6,7,8,9-octahydropyrimido[1,2-a]pyrimidin-5-ium",26.025,"[26.03, 26.02]","[Kutt et al., Tetrahedron Lett., 2018., Tshepelvitsh et al., Eur. J. Org. Chem., 2019, 6735-6748.]",protonated amine,acetonitrile
671,COc1ccc(C2=CC3CCCCC3C3=C2OP(=O)(NS(=O)(=O)C(F)(F)F)Oc2c(-c4ccc(OC)cc4)cc4c(c23)CCCC4)cc1,CC#N,1071853-99-0,"N-[10,16-bis(4-methoxyphenyl)-13-oxo-12,14-dioxa-135-phosphapentacyclo[13.8.0.02,11.03,8.018,23]tricosa-1(15),2,8,10,16-pentaen-13-yl]-1,1,1-trifluoromethanesulfonamide",6.865,"[6.83, 6.9]","[Kutt et al., Eur. J. Org. Chem., 2021, 2021 (9), 1407-1419., Paenurk et al., Chem. Sci., 2017, 8, 6964-6973.]",amine,acetonitrile
672,O=[N+]([O-])c1cc2ccccc2[nH]1,CC#N,60544-75-4,2-nitro-1H-indole,23.64,[23.64],"[Kutt et al., Eur. J. Org. Chem., 2021, 2021 (9), 1407-1419.]",amine,acetonitrile
673,COc1cc(OC)nc(NC(=O)NS(=O)(=O)c2ncccc2C(F)(F)F)n1,O,0,0,4.37,[4.37],"[Hunt et al.. J. Chem. Inf. Model, 2020, 60 (6), 2989-2997.]",amine,water
674,CN(C)CC[NH+](C)C,C1CCOC1,-,2-(dimethylamino)ethyl-dimethylazanium,12.8,[12.8],"[Tshepelvitsh et al., Eur. J. Org. Chem., 2019, 6735-6748.]",protonated amine,THF
675,O=C(O)c1ccc2ccccc2c1,O,0,0,4.18,[4.18],"[Hunt et al.. J. Chem. Inf. Model, 2020, 60 (6), 2989-2997.]",carboxylic acid,water
676,[NH3+]c1cc([N+](=O)[O-])ccc1F,O,0,0,1.09,[1.09],"[Hunt et al.. J. Chem. Inf. Model, 2020, 60 (6), 2989-2997.]",protonated amine,water
677,C[NH2+]CCc1cccc[nH+]1,O,0,0,3.9,[3.9],"[Hunt et al.. J. Chem. Inf. Model, 2020, 60 (6), 2989-2997.]",protonated amine,water
678,Oc1cccc2nccnc12,O,0,0,8.68,[8.68],"[Hunt et al.. J. Chem. Inf. Model, 2020, 60 (6), 2989-2997.]",phenol,water
679,CCC(=O)C(C[C@H](C)[NH+]1CCCCC1)(c1ccccc1)c1ccccc1,O,0,0,8.53,[8.53],"[Hunt et al.. J. Chem. Inf. Model, 2020, 60 (6), 2989-2997.]",protonated amine,water
680,O=C(O)c1c(Cl)cccc1[N+](=O)[O-],O,0,0,1.34,[1.34],"[Hunt et al.. J. Chem. Inf. Model, 2020, 60 (6), 2989-2997.]",carboxylic acid,water
681,C=CC[NH+](C[C@@H](C)O)C[C@@H](C)O,O,0,0,8.2,[8.2],"[Hunt et al.. J. Chem. Inf. Model, 2020, 60 (6), 2989-2997.]",protonated amine,water
682,COc1ccc(Cc2[nH+]ccc3cc(OC)c(OC)cc23)cc1OC,O,0,0,6.4,[6.4],"[Hunt et al.. J. Chem. Inf. Model, 2020, 60 (6), 2989-2997.]",protonated amine,water
683,Cc1ccc(S(=O)(=O)NS(=O)(=O)c2ccc([N+](=O)[O-])cc2)cc1,C(CCl)Cl,100724-78-5,4-methyl-N-(4-nitrophenyl)sulfonylbenzenesulfonamide,43.3,"[43.3, 43.3]","[Kutt et al., Eur. J. Org. Chem., 2021, 2021 (9), 1407-1419., Paenurk et al., Chem. Sci., 2017, 8, 6964-6973.]",amine,DCE
684,[NH3+]C[C@H](O)c1cccc(O)c1,O,0,0,8.67,[8.67],"[Hunt et al.. J. Chem. Inf. Model, 2020, 60 (6), 2989-2997.]",protonated amine,water
685,Cc1c(F)c(F)c(C(C#N)c2ccccc2)c(F)c1F,CC#N,58432-62-5,"2-phenyl-2-(2,3,5,6-tetrafluoro-4-methylphenyl)acetonitrile",26.96666667,"[26.96, 26.96, 26.98]","[Paenurk et al., Chem. Sci., 2017, 8, 6964-6973., Eckert et al., J. Comput. Chem., 2009, 30, 799-810., Kutt et al., Eur. J. Org. Chem., 2021, 2021 (9), 1407-1419.]",C-H acid,acetonitrile
686,CCCc1c(C)nc(N)[nH+]c1C,O,0,0,5.42,[5.42],"[Hunt et al.. J. Chem. Inf. Model, 2020, 60 (6), 2989-2997.]",protonated amine,water
687,C1CN=C2CCC[NH+]2C1,CC#N,-,"3,4,5,6,7,8-hexahydro-2H-pyrrolo[1,2-a]pyrimidin-5-ium",23.89,[23.89],"[Tshepelvitsh et al., Eur. J. Org. Chem., 2019, 6735-6748.]",protonated amine,acetonitrile
688,CSc1cc(Cl)c([NH3+])cc1Cl,O,0,0,1.7,[1.7],"[Hunt et al.. J. Chem. Inf. Model, 2020, 60 (6), 2989-2997.]",protonated amine,water
689,[O-][Cl+3]([O-])([O-])O,CC#N,7601-90-3,perchloric acid,1.7,"[1.57, 1.83]","[Eckert et al., J. Comput. Chem., 2009, 30, 799-810., Kutt et al., Tetrahedron Lett., 2018.]",inorganic,acetonitrile
690,O=C(NC[C@@H](O)CN1CCC(Oc2ccc(Cl)c(Cl)c2)CC1)c1c[nH]c(=O)c2ccccc12,O,0,0,10.9,[10.9],"[Hunt et al.. J. Chem. Inf. Model, 2020, 60 (6), 2989-2997.]",hydroxyl alcohol,water
691,O=C(O)[C@H](c1ccccc1)[NH+]1CCC(CN2CCC(Oc3ccc(Cl)c(Cl)c3)CC2)CC1,O,0,0,9.6,[9.6],"[Hunt et al.. J. Chem. Inf. Model, 2020, 60 (6), 2989-2997.]",protonated amine,water
692,COc1ccccc1-c1ccccc1O,O,0,0,10.4,[10.4],"[Hunt et al.. J. Chem. Inf. Model, 2020, 60 (6), 2989-2997.]",phenol,water
693,Cc1cc(N)nc(Nc2ccc(Cl)cc2)[nH+]1,O,0,0,6.6,[6.6],"[Hunt et al.. J. Chem. Inf. Model, 2020, 60 (6), 2989-2997.]",protonated amine,water
694,Cc1cc(C)c(C(=O)O)c(C)c1,CC#N,480-63-7,"2,4,6-trimethylbenzoic acid",20.5,[20.5],"[Eckert et al., J. Comput. Chem., 2009, 30, 799-810.]",carboxylic acid,acetonitrile
695,CCOCCS,O,0,0,9.38,[9.38],"[Hunt et al.. J. Chem. Inf. Model, 2020, 60 (6), 2989-2997.]",thiol,water
696,CCC(CC)C(=O)O,O,0,0,4.73,[4.73],"[Hunt et al.. J. Chem. Inf. Model, 2020, 60 (6), 2989-2997.]",carboxylic acid,water
697,C[NH2+]CC[C@@H](Oc1cc(C(F)(F)F)ccc1C#N)c1ccccc1,O,0,0,10.4,[10.4],"[Hunt et al.. J. Chem. Inf. Model, 2020, 60 (6), 2989-2997.]",protonated amine,water
698,CC1=CCC[N@@H+]1C,O,0,0,11.9,[11.9],"[Hunt et al.. J. Chem. Inf. Model, 2020, 60 (6), 2989-2997.]",protonated amine,water
699,Nc1c(S(=O)(=O)F)cc(S(=O)(=O)F)cc1S(=O)(=O)F,CS(=O)C,133213-11-3,"2-aminobenzene-1,3,5-trisulfonyl fluoride",7.8,[7.8],"[Kutt et al., Eur. J. Org. Chem., 2021, 2021 (9), 1407-1419.]",amine,DMSO
700,CC1=C(CC(=O)O)c2cc(F)ccc2/C1=C\c1ccc([S@](C)=O)cc1,O,0,0,3.9,[3.9],"[Hunt et al.. J. Chem. Inf. Model, 2020, 60 (6), 2989-2997.]",carboxylic acid,water
701,CCOc1cccc(C[NH2+]C(Cc2ccccc2)Cc2ccccc2)c1,O,0,0,6.4,[6.4],"[Hunt et al.. J. Chem. Inf. Model, 2020, 60 (6), 2989-2997.]",protonated amine,water
702,CCOC(=O)C1=C(C)[NH2+]C(C)=C(C(C)=O)[C@H]1c1cccc2c(=O)cc(C)oc12,O,0,0,2.22,[2.22],"[Hunt et al.. J. Chem. Inf. Model, 2020, 60 (6), 2989-2997.]",protonated amine,water
703,O=C(O)COc1ccccc1F,O,0,0,3.08,[3.08],"[Hunt et al.. J. Chem. Inf. Model, 2020, 60 (6), 2989-2997.]",carboxylic acid,water
704,C[NH+](C)CCc1cccnc1,O,0,0,8.86,[8.86],"[Hunt et al.. J. Chem. Inf. Model, 2020, 60 (6), 2989-2997.]",protonated amine,water
705,C[N@@H+]1CCCCC(=O)[C@H](O)CCCC1,O,0,0,9.1,[9.1],"[Hunt et al.. J. Chem. Inf. Model, 2020, 60 (6), 2989-2997.]",protonated amine,water
706,NCCCCC[NH3+],C1CCOC1,-,5-aminopentylazanium,14.2,[14.2],"[Tshepelvitsh et al., Eur. J. Org. Chem., 2019, 6735-6748.]",protonated amine,THF
707,C[NH+](C)Cc1ccc2cccnc2c1O,O,0,0,11,[11.0],"[Hunt et al.. J. Chem. Inf. Model, 2020, 60 (6), 2989-2997.]",protonated amine,water
708,[NH3+]CCCCCO,O,0,0,10.46,[10.46],"[Hunt et al.. J. Chem. Inf. Model, 2020, 60 (6), 2989-2997.]",protonated amine,water
709,CCCCCC(C)(C)[NH3+],O,0,0,10.56,[10.56],"[Hunt et al.. J. Chem. Inf. Model, 2020, 60 (6), 2989-2997.]",protonated amine,water
710,CC(C)[NH2+]C[C@H](O)c1ccccc1F,O,0,0,9.41,[9.41],"[Hunt et al.. J. Chem. Inf. Model, 2020, 60 (6), 2989-2997.]",protonated amine,water
711,CN1CCC[NH+]2CCCN=C12,CS(=O)C,-,"1-methyl-3,4,5,6,7,8-hexahydro-2H-pyrimido[1,2-a]pyrimidin-5-ium",14.8,[14.8],"[Tshepelvitsh et al., Eur. J. Org. Chem., 2019, 6735-6748.]",protonated amine,DMSO
712,CCCc1ccc(O)cc1,O,0,0,10.34,[10.34],"[Hunt et al.. J. Chem. Inf. Model, 2020, 60 (6), 2989-2997.]",phenol,water
713,C[NH2+]C[C@H](O)c1ccc(OC)c(OC)c1,O,0,0,9.51,[9.51],"[Hunt et al.. J. Chem. Inf. Model, 2020, 60 (6), 2989-2997.]",protonated amine,water
714,CCCCCCCCCCC[NH3+],O,0,0,10.63,[10.63],"[Hunt et al.. J. Chem. Inf. Model, 2020, 60 (6), 2989-2997.]",protonated amine,water
715,CCC[NH+](CCC)c1ccccc1,O,0,0,5.68,[5.68],"[Hunt et al.. J. Chem. Inf. Model, 2020, 60 (6), 2989-2997.]",protonated amine,water
716,CC(C)N1C(=O)c2ccccc2NS1(=O)=O,O,0,0,3.3,[3.3],"[Hunt et al.. J. Chem. Inf. Model, 2020, 60 (6), 2989-2997.]",amine,water
717,CC(=O)N(C)c1cccc[nH+]1,O,0,0,2.01,[2.01],"[Hunt et al.. J. Chem. Inf. Model, 2020, 60 (6), 2989-2997.]",protonated amine,water
718,CCOC(=O)C(C#N)c1c(F)c(F)c(Cl)c(F)c1F,C(CCl)Cl,55810-56-5,"ethyl 2-(4-chloro-2,3,5,6-tetrafluorophenyl)-2-cyanoacetate",52.2,[52.2],"[Paenurk et al., Chem. Sci., 2017, 8, 6964-6973.]",C-H acid,DCE
719,O=[N+]([O-])c1cc(Cl)cc([N+](=O)[O-])c1O,O,0,0,2.97,[2.97],"[Hunt et al.. J. Chem. Inf. Model, 2020, 60 (6), 2989-2997.]",phenol,water
720,COC(=O)CCC[NH3+],O,0,0,9.838,[9.838],"[Hunt et al.. J. Chem. Inf. Model, 2020, 60 (6), 2989-2997.]",protonated amine,water
721,[NH3+]c1ccc(Br)cc1Br,O,0,0,2.3,[2.3],"[Hunt et al.. J. Chem. Inf. Model, 2020, 60 (6), 2989-2997.]",protonated amine,water
722,C[C@H](O)CC(=O)O,O,0,0,4.7,[4.7],"[Hunt et al.. J. Chem. Inf. Model, 2020, 60 (6), 2989-2997.]",carboxylic acid,water
723,CC[NH2+]c1ccccc1[N+](=O)[O-],O,0,0,-0.21,[-0.21],"[Hunt et al.. J. Chem. Inf. Model, 2020, 60 (6), 2989-2997.]",protonated amine,water
724,Cc1ccc(C)c(O)c1,O,0,0,10.22,[10.22],"[Hunt et al.. J. Chem. Inf. Model, 2020, 60 (6), 2989-2997.]",phenol,water
725,[NH3+]CCC(F)(F)F,O,0,0,8.7,[8.7],"[Hunt et al.. J. Chem. Inf. Model, 2020, 60 (6), 2989-2997.]",protonated amine,water
726,C1=CC=[N+]C=C1,CC#N,16969-45-2,pyridin-1-ium,12.53,[12.53],"[Kutt et al., Tetrahedron Lett., 2018.]",protonated amine,acetonitrile
727,Cc1cc([N+](=O)[O-])cc([N+](=O)[O-])c1O,CS(=O)C,534-52-1,"2-methyl-4,6-dinitrophenol",4.59,[4.59],"[Kutt et al., Eur. J. Org. Chem., 2021, 2021 (9), 1407-1419.]",phenol,DMSO
728,C=CC[C@@H](C)C(=O)O,O,0,0,4.72,[4.72],"[Hunt et al.. J. Chem. Inf. Model, 2020, 60 (6), 2989-2997.]",carboxylic acid,water
729,Cc1ccc([N+](=O)[O-])c(O)c1,O,0,0,7.25,[7.25],"[Hunt et al.. J. Chem. Inf. Model, 2020, 60 (6), 2989-2997.]",phenol,water
730,Cc1cccc([C@H](C)[NH3+])c1,O,0,0,9.41,[9.41],"[Hunt et al.. J. Chem. Inf. Model, 2020, 60 (6), 2989-2997.]",protonated amine,water
731,CCC(=O)C(CC[NH+]1CCCCC1)(c1ccccc1)c1ccccc1,O,0,0,8.81,[8.81],"[Hunt et al.. J. Chem. Inf. Model, 2020, 60 (6), 2989-2997.]",protonated amine,water
732,C=CCOc1ccccc1OC[C@H](O)C[NH2+]C(C)C,O,0,0,9.69,[9.69],"[Hunt et al.. J. Chem. Inf. Model, 2020, 60 (6), 2989-2997.]",protonated amine,water
733,COC(=O)c1ccccc1CS(=O)(=O)NC(=O)Nc1nc(OC)cc(OC)n1,O,0,0,5.2,[5.2],"[Hunt et al.. J. Chem. Inf. Model, 2020, 60 (6), 2989-2997.]",amine,water
734,COC(=O)c1cc([NH3+])c2ccccc2c1,O,0,0,3.12,[3.12],"[Hunt et al.. J. Chem. Inf. Model, 2020, 60 (6), 2989-2997.]",protonated amine,water
735,C[NH+](C)c1ccccc1,O,-,dimethyl(phenyl)azanium,5.064,"[5.06, 5.068]","[Tshepelvitsh et al., Eur. J. Org. Chem., 2019, 6735-6748. ,   Hunt et al.. J. Chem. Inf. Model, 2020, 60 (6), 2989-2997.]",protonated amine,water
736,COc1ccc([P@@H](=O)O)cc1,O,0,0,2.35,[2.35],"[Hunt et al.. J. Chem. Inf. Model, 2020, 60 (6), 2989-2997.]",acidic hydroxyl,water
737,C1CC[C@@H]2CC[NH2+]C[C@H]2C1,O,0,0,11.32,[11.32],"[Hunt et al.. J. Chem. Inf. Model, 2020, 60 (6), 2989-2997.]",protonated amine,water
738,CSc1c(Cl)cc([NH3+])cc1Cl,O,0,0,1.67,[1.67],"[Hunt et al.. J. Chem. Inf. Model, 2020, 60 (6), 2989-2997.]",protonated amine,water
739,CC(C)C1=[NH+]C[C@H](C)S1,O,0,0,5.164,[5.164],"[Hunt et al.. J. Chem. Inf. Model, 2020, 60 (6), 2989-2997.]",protonated amine,water
740,C[C@H]([NH3+])c1cccc(Br)c1,O,0,0,9.88,[9.88],"[Hunt et al.. J. Chem. Inf. Model, 2020, 60 (6), 2989-2997.]",protonated amine,water
741,CC(C)[NH2+]C[C@H](O)c1cc(O)cc(O)c1,O,0,0,9.92,[9.92],"[Hunt et al.. J. Chem. Inf. Model, 2020, 60 (6), 2989-2997.]",protonated amine,water
742,O=S(=O)(O)O,CC#N,7664-93-9,sulfuric acid,7.466666667,"[7.2, 7.6, 7.6]","[Eckert et al., J. Comput. Chem., 2009, 30, 799-810., Kutt et al., Eur. J. Org. Chem., 2021, 2021 (9), 1407-1419., Kutt et al., Eur. J. Org. Chem., 2021, 2021 (9), 1407-1419.]",inorganic,acetonitrile
743,[NH3+][C@@H]1C[C@H]1c1ccc(F)cc1,O,0,0,8.25,[8.25],"[Hunt et al.. J. Chem. Inf. Model, 2020, 60 (6), 2989-2997.]",protonated amine,water
744,CC(=O)c1cc([NH3+])ccc1[N+](=O)[O-],O,0,0,-0.14,[-0.14],"[Hunt et al.. J. Chem. Inf. Model, 2020, 60 (6), 2989-2997.]",protonated amine,water
745,CCOC(=O)c1ccccc1[NH3+],O,0,0,2.18,[2.18],"[Hunt et al.. J. Chem. Inf. Model, 2020, 60 (6), 2989-2997.]",protonated amine,water
746,CC(C)(C)c1cc([NH3+])cc(C(C)(C)C)c1,O,0,0,4.97,[4.97],"[Hunt et al.. J. Chem. Inf. Model, 2020, 60 (6), 2989-2997.]",protonated amine,water
747,Oc1cccc2ccnnc12,O,0,0,8.22,[8.22],"[Hunt et al.. J. Chem. Inf. Model, 2020, 60 (6), 2989-2997.]",phenol,water
748,CC[NH+](CC)CCC#N,O,0,0,8.29,[8.29],"[Hunt et al.. J. Chem. Inf. Model, 2020, 60 (6), 2989-2997.]",protonated amine,water
749,c1ccc(-c2cccc[nH+]2)nc1,O,,2-pyridin-1-ium-2-ylpyridine,4.385,"[4.54, 4.23]","[Lokov et al., Eur. J. Org. Chem., 2017, 30, 4475-4489., Tshepelvitsh et al., Eur. J. Org. Chem., 2019, 6735-6748.]",protonated amine,water
750,C[NH+]1CCCCC1,CC#N,-,1-methylpiperidin-1-ium,18.24,[18.24],"[Tshepelvitsh et al., Eur. J. Org. Chem., 2019, 6735-6748.]",protonated amine,acetonitrile
751,c1ccc2[nH+]cccc2c1,O,-,quinolin-1-ium,4.93,"[4.93, 4.93]","[Lokov et al., Eur. J. Org. Chem., 2017, 30, 4475-4489., Tshepelvitsh et al., Eur. J. Org. Chem., 2019, 6735-6748.]",protonated amine,water
752,O=[N+]([O-])c1cccc(S(=O)(=O)NS(=O)(=O)c2cccc([N+](=O)[O-])c2)c1,CC#N,116082-80-5,3-nitro-N-(3-nitrophenyl)sulfonylbenzenesulfonamide,8.156666667,"[8.16, 8.16, 8.15]","[Kutt et al., Eur. J. Org. Chem., 2021, 2021 (9), 1407-1419., Kutt et al., Eur. J. Org. Chem., 2021, 2021 (9), 1407-1419., Paenurk et al., Chem. Sci., 2017, 8, 6964-6973.]",amine,acetonitrile
753,CC(C)(C)c1cc(O)cc(C(C)(C)C)c1,O,0,0,10.29,[10.29],"[Hunt et al.. J. Chem. Inf. Model, 2020, 60 (6), 2989-2997.]",phenol,water
754,CC(C)(C)c1ccc([S@@](=O)CC(=O)O)cc1,O,0,0,2.773,[2.773],"[Hunt et al.. J. Chem. Inf. Model, 2020, 60 (6), 2989-2997.]",carboxylic acid,water
755,C1=C[NH2+]C=N1,O,-,1H-imidazol-1-ium,6.95,"[6.95, 6.95]","[Lokov et al., Eur. J. Org. Chem., 2017, 30, 4475-4489., Tshepelvitsh et al., Eur. J. Org. Chem., 2019, 6735-6748.]",protonated amine,water
756,Oc1ccc(I)cc1,O,0,0,9.2,[9.2],"[Hunt et al.. J. Chem. Inf. Model, 2020, 60 (6), 2989-2997.]",phenol,water
757,Cc1cc(C[N@H+]2Cc3ccccc3[C@@H]2C(=O)Nc2ccc(Cl)cc2Cl)ccc1OCC(=O)O,O,0,0,3.1,[3.1],"[Hunt et al.. J. Chem. Inf. Model, 2020, 60 (6), 2989-2997.]",protonated amine,water
758,CCCCOc1ccc([C@@H](O)C[NH2+]C)cc1OC,O,0,0,9.51,[9.51],"[Hunt et al.. J. Chem. Inf. Model, 2020, 60 (6), 2989-2997.]",protonated amine,water
759,Cc1nc2ccc(-c3ccc(Cl)cc3)cc2c(=O)n1C[C@H]1CCC[N@@H+](C(C)C)C1,O,0,0,10.09,[10.09],"[Hunt et al.. J. Chem. Inf. Model, 2020, 60 (6), 2989-2997.]",protonated amine,water
760,Oc1cccc(Cl)c1,CC#N,108-43-0,3-chlorophenol,25,[25.0],"[Eckert et al., J. Comput. Chem., 2009, 30, 799-810.]",phenol,acetonitrile
761,[NH3+]c1cccc(OC(F)(F)F)c1,O,0,0,3.25,[3.25],"[Hunt et al.. J. Chem. Inf. Model, 2020, 60 (6), 2989-2997.]",protonated amine,water
762,[NH3+]c1ccc([C@@]23CCCC[C@@H]2C3)cc1,O,0,0,4.78,[4.78],"[Hunt et al.. J. Chem. Inf. Model, 2020, 60 (6), 2989-2997.]",protonated amine,water