,Solute SMILES,Solvent SMILES,Solute CAS,Solute IUPAC,pKa (avg),pKa (all),Source (all),Acid type,Solvent name
1126,O=S(=O)(N=C(NS(=O)(=O)C(F)(F)F)c1ccc(Cl)cc1)C(F)(F)F,CC#N,500721-95-9,"4-chloro-N,N'-bis(trifluoromethylsulfonyl)benzenecarboximidamide",5.288,"[5.24, 5.2, 5.24, 5.56, 5.2]","[ Kutt et al., J. Org. Chem., 2011, 76, 391-395., Kutt et al., Eur. J. Org. Chem., 2021, 2021 (9), 1407-1419., Paenurk et al., Chem. Sci., 2017, 8, 6964-6973., Eckert et al., J. Comput. Chem., 2009, 30, 799-810., Kutt et al., Eur. J. Org. Chem., 2021, 2021 (9), 1407-1419.]",amine,acetonitrile
1127,C[C@@]12CC3CC([NH3+])(C1)C[C@](C)(C3)C2,O,0,0,10.66,[10.66],"[Hunt et al.. J. Chem. Inf. Model, 2020, 60 (6), 2989-2997.]",protonated amine,water
1128,O=[N+]([O-])c1ccc(F)cc1O,O,0,0,6.07,[6.07],"[Hunt et al.. J. Chem. Inf. Model, 2020, 60 (6), 2989-2997.]",phenol,water
1129,Cc1cc([NH3+])cc(C)c1C,O,0,0,5.12,[5.12],"[Hunt et al.. J. Chem. Inf. Model, 2020, 60 (6), 2989-2997.]",protonated amine,water
1130,O=C(O)c1ccc[nH+]c1,O,0,0,4.8,[4.8],"[Hunt et al.. J. Chem. Inf. Model, 2020, 60 (6), 2989-2997.]",protonated amine,water
1131,CN(C)S(=O)(=O)NC(=O)CCCc1c(-c2ccc(F)cc2)[nH]c2ccc(C#N)cc12,O,0,0,5.5,[5.5],"[Hunt et al.. J. Chem. Inf. Model, 2020, 60 (6), 2989-2997.]",amine,water
1132,[NH3+]c1ccc([N+](=O)[O-])cc1Cl,O,0,0,-0.94,[-0.94],"[Hunt et al.. J. Chem. Inf. Model, 2020, 60 (6), 2989-2997.]",protonated amine,water
1133,C[NH2+]CCCc1ccccc1,O,0,0,10.43,[10.43],"[Hunt et al.. J. Chem. Inf. Model, 2020, 60 (6), 2989-2997.]",protonated amine,water
1134,CC(C)[NH2+]C[C@@H](O)COc1cccc2[nH]ccc12,O,0,0,9.62,[9.62],"[Hunt et al.. J. Chem. Inf. Model, 2020, 60 (6), 2989-2997.]",protonated amine,water
1135,C[NH2+]CCc1ccccc1,O,0,0,10.08,[10.08],"[Hunt et al.. J. Chem. Inf. Model, 2020, 60 (6), 2989-2997.]",protonated amine,water
1136,C1=C[NH2+]C=N1,C1CCOC1,-,1H-imidazol-1-ium,9.4,[9.4],"[Tshepelvitsh et al., Eur. J. Org. Chem., 2019, 6735-6748.]",protonated amine,THF
1137,O=C(CCC(O)=O)O,O,0,0,5.64,[5.64],"[Hunt et al.. J. Chem. Inf. Model, 2020, 60 (6), 2989-2997.]",carboxylic acid,water
1138,N#CC(C#N)=C(C(C#N)C#N)C(F)(F)F,C(CCl)Cl,1261286-81-0,,32.2,[32.2],"[Paenurk et al., Chem. Sci., 2017, 8, 6964-6973.]",C-H acid,DCE
1139,Cc1cccc([NH3+])c1C,O,0,0,4.7,[4.7],"[Hunt et al.. J. Chem. Inf. Model, 2020, 60 (6), 2989-2997.]",protonated amine,water
1140,[NH3+]c1ccc(CC(=O)[O-])cc1,O,0,0,5.26,[5.26],"[Hunt et al.. J. Chem. Inf. Model, 2020, 60 (6), 2989-2997.]",protonated amine,water
1141,C=C[C@@H](Cl)C(=O)O,O,0,0,2.54,[2.54],"[Hunt et al.. J. Chem. Inf. Model, 2020, 60 (6), 2989-2997.]",carboxylic acid,water
1142,O=[N+]([O-])c1cc(Cl)c(O)c([N+](=O)[O-])c1,O,0,0,2.105,"[2.2, 2.01]","[Hunt et al.. J. Chem. Inf. Model, 2020, 60 (6), 2989-2997. ,   Kutt et al., Eur. J. Org. Chem., 2021, 2021 (9), 1407-1419.]",phenol,water
1143,NS(=O)(=O)c1cccc(C(F)(F)F)c1,CS(=O)C,672-58-2,3-(trifluoromethyl)benzenesulfonamide,15.2,[15.2],"[Kutt et al., Eur. J. Org. Chem., 2021, 2021 (9), 1407-1419.]",amine,DMSO
1144,[NH3+]c1ccccc1,C1CCOC1,65756-50-5,phenylazanium,5.2,"[5.2, 5.2]","[Kutt et al., Tetrahedron Lett., 2018., Tshepelvitsh et al., Eur. J. Org. Chem., 2019, 6735-6748.]",protonated amine,THF
1145,COc1ccc(C[C@@H](C)[NH3+])cc1,O,0,0,9.99,[9.99],"[Hunt et al.. J. Chem. Inf. Model, 2020, 60 (6), 2989-2997.]",protonated amine,water
1146,CCC[NH3+],O,,propylazanium,10.61,"[10.53, 10.69]","[Tshepelvitsh et al., Eur. J. Org. Chem., 2019, 6735-6748. ,   Hunt et al.. J. Chem. Inf. Model, 2020, 60 (6), 2989-2997.]",protonated amine,water
1147,N#Cc1ccc(C[C@@H](C(=O)[O-])[NH+]2CCC(CN3CCC(Oc4ccc(Cl)c(Cl)c4)CC3)CC2)cc1,O,0,0,8.9,[8.9],"[Hunt et al.. J. Chem. Inf. Model, 2020, 60 (6), 2989-2997.]",protonated amine,water
1148,[NH3+][C@H]1CCc2ccccc21,O,0,0,9.21,[9.21],"[Hunt et al.. J. Chem. Inf. Model, 2020, 60 (6), 2989-2997.]",protonated amine,water
1149,O=S(=O)(O)O,C(CCl)Cl,7664-93-9,sulfuric acid,42.8,"[42.8, 42.8]","[Kutt et al., Eur. J. Org. Chem., 2021, 2021 (9), 1407-1419., Paenurk et al., Chem. Sci., 2017, 8, 6964-6973.]",inorganic,DCE
1150,CN(C)CCCC[NH+](C)C,CC#N,-,4-(dimethylamino)butyl-dimethylazanium,19.96,[19.96],"[Tshepelvitsh et al., Eur. J. Org. Chem., 2019, 6735-6748.]",protonated amine,acetonitrile
1151,C1CCC2=NCCC[NH+]2CC1,CC#N,-,"3,4,5,6,7,8,9,10-octahydro-2H-pyrimido[1,2-a]azepin-5-ium",24.325,"[24.34, 24.31]","[Kutt et al., Tetrahedron Lett., 2018., Tshepelvitsh et al., Eur. J. Org. Chem., 2019, 6735-6748.]",protonated amine,acetonitrile
1152,CCOc1ccc(NC(C)=O)cc1,O,0,0,11.8,[11.8],"[Hunt et al.. J. Chem. Inf. Model, 2020, 60 (6), 2989-2997.]",amine,water
1153,CC(=O)Oc1c[nH]c2ccccc12,CC#N,608-08-2,1H-indol-3-yl acetate,29.97,"[29.97, 29.97]","[Kutt et al., Eur. J. Org. Chem., 2021, 2021 (9), 1407-1419., Kutt et al., Eur. J. Org. Chem., 2021, 2021 (9), 1407-1419.]",amine,acetonitrile
1154,COCCOc1ccccc1S(=O)(=O)NC(=O)Nc1nc(OC)nc(OC)n1,O,0,0,4.72,[4.72],"[Hunt et al.. J. Chem. Inf. Model, 2020, 60 (6), 2989-2997.]",amine,water
1155,Cc1c(C#N)c(C#N)c(C#N)c(C#N)c1C#N,CS(=O)C,1213-77-0,"6-methylbenzene-1,2,3,4,5-pentacarbonitrile",8.2,[8.2],"[Kutt et al., Eur. J. Org. Chem., 2021, 2021 (9), 1407-1419.]",C-H acid,DMSO
1156,[NH3+]c1ccc(Cl)c([N+](=O)[O-])c1,O,0,0,1.9,[1.9],"[Hunt et al.. J. Chem. Inf. Model, 2020, 60 (6), 2989-2997.]",protonated amine,water
1157,CC(=O)N[C@H](C(=O)O)C(C)(C)S,O,0,0,9.9,[9.9],"[Hunt et al.. J. Chem. Inf. Model, 2020, 60 (6), 2989-2997.]",carboxylic acid,water
1158,Cc1[nH+]ccn1C[C@H]1CCc2c(c3ccccc3n2C)C1=O,O,0,0,7.73,[7.73],"[Hunt et al.. J. Chem. Inf. Model, 2020, 60 (6), 2989-2997.]",protonated amine,water
1159,O=CC(=O)O,O,0,0,3.18,[3.18],"[Hunt et al.. J. Chem. Inf. Model, 2020, 60 (6), 2989-2997.]",carboxylic acid,water
1160,CN(C)[C@@H]1CCc2c(ccc(O)c2O)C1,O,0,0,8.85,"[8.85, 8.85]","[Hunt et al.. J. Chem. Inf. Model, 2020, 60 (6), 2989-2997. ,   Hunt et al.. J. Chem. Inf. Model, 2020, 60 (6), 2989-2997.]",phenol,water
1161,Oc1cccc2cncnc12,O,0,0,8.67,[8.67],"[Hunt et al.. J. Chem. Inf. Model, 2020, 60 (6), 2989-2997.]",phenol,water
1162,CCNc1nccc[nH+]1,O,0,0,3.89,[3.89],"[Hunt et al.. J. Chem. Inf. Model, 2020, 60 (6), 2989-2997.]",protonated amine,water
1163,[O-][n+]1ccc(O)cc1,O,0,0,5.76,[5.76],"[Hunt et al.. J. Chem. Inf. Model, 2020, 60 (6), 2989-2997.]",phenol,water
1164,CC[N@@H+](c1ccccc1)C(C)(C)C,O,0,0,8.02,[8.02],"[Hunt et al.. J. Chem. Inf. Model, 2020, 60 (6), 2989-2997.]",protonated amine,water
1165,COc1ccc(Cl)cc1[NH3+],O,0,0,3.56,[3.56],"[Hunt et al.. J. Chem. Inf. Model, 2020, 60 (6), 2989-2997.]",protonated amine,water
1166,[NH3+]c1ccc2c(c1)Cc1c-2ccc2ccccc12,O,0,0,4.67,[4.67],"[Hunt et al.. J. Chem. Inf. Model, 2020, 60 (6), 2989-2997.]",protonated amine,water
1167,CC(C)c1ccc(CC(=O)O)cc1,O,0,0,4.39,[4.39],"[Hunt et al.. J. Chem. Inf. Model, 2020, 60 (6), 2989-2997.]",carboxylic acid,water
1168,O=[N+]([O-])c1cc(O)cc([N+](=O)[O-])c1,CC#N,586-11-8,"3,5-dinitrophenol",20.5,[20.5],"[Eckert et al., J. Comput. Chem., 2009, 30, 799-810.]",phenol,acetonitrile
1169,CC(=O)c1ccc(S)cc1,O,0,0,5.33,[5.33],"[Hunt et al.. J. Chem. Inf. Model, 2020, 60 (6), 2989-2997.]",thiol,water
1170,O=[N+]([O-])c1ccc(C(=NS(=O)(=O)C(F)(F)F)NS(=O)(=O)C(F)(F)F)cc1,C(CCl)Cl,500721-97-1,"4-nitro-N,N'-bis(trifluoromethylsulfonyl)benzenecarboximidamide",31.7,[31.7],"[Paenurk et al., Chem. Sci., 2017, 8, 6964-6973.]",amine,DCE
1171,Cc1nnc(C(C)C)n1C1C[C@@H]2CC[C@H](C1)[NH+]2CC[C@H](NC(=O)C1CCC(F)(F)CC1)c1ccccc1,O,0,0,9.66,[9.66],"[Hunt et al.. J. Chem. Inf. Model, 2020, 60 (6), 2989-2997.]",protonated amine,water
1172,[NH3+]c1ccc(Br)cc1,O,0,0,3.86,[3.86],"[Hunt et al.. J. Chem. Inf. Model, 2020, 60 (6), 2989-2997.]",protonated amine,water
1173,CCCCCC[NH3+],O,0,0,10.64,[10.64],"[Hunt et al.. J. Chem. Inf. Model, 2020, 60 (6), 2989-2997.]",protonated amine,water
1174,CC(C)[NH2+]C[C@H](O)c1ccccc1I,O,0,0,9.32,[9.32],"[Hunt et al.. J. Chem. Inf. Model, 2020, 60 (6), 2989-2997.]",protonated amine,water
1175,Oc1c(Cl)ccc2cccnc12,O,0,0,8.7,[8.7],"[Hunt et al.. J. Chem. Inf. Model, 2020, 60 (6), 2989-2997.]",phenol,water
1176,C[NH+](C)CCO,O,0,0,9,[9.0],"[Hunt et al.. J. Chem. Inf. Model, 2020, 60 (6), 2989-2997.]",protonated amine,water
1177,Oc1cc(C(F)(F)F)cc2cccnc12,O,0,0,10.1,[10.1],"[Hunt et al.. J. Chem. Inf. Model, 2020, 60 (6), 2989-2997.]",phenol,water
1178,COC(=O)[C@](C)(CC(=O)O)c1ccccc1,O,0,0,4.46,[4.46],"[Hunt et al.. J. Chem. Inf. Model, 2020, 60 (6), 2989-2997.]",carboxylic acid,water
1179,COC(=O)c1ccccc1S(=O)(=O)NC(=O)Nc1nc(OC(F)F)cc(OC(F)F)n1,O,0,0,3.47,[3.47],"[Hunt et al.. J. Chem. Inf. Model, 2020, 60 (6), 2989-2997.]",amine,water
1180,OC(C(F)(F)F)(C(F)(F)F)C(F)(F)F,CC#N,1/2/78,"1,1,1,3,3,3-hexafluoro-2-(trifluoromethyl)propan-2-ol",20.525,"[20.55, 20.5, 20.5, 20.55]","[Eckert et al., J. Comput. Chem., 2009, 30, 799-810., Kutt et al., Eur. J. Org. Chem., 2021, 2021 (9), 1407-1419., Kutt et al., Eur. J. Org. Chem., 2021, 2021 (9), 1407-1419., Paenurk et al., Chem. Sci., 2017, 8, 6964-6973.]",hydroxyl alcohol,acetonitrile
1181,O=[N+]([O-])c1cc(S(=O)(=O)NS(=O)(=O)c2c(F)c(F)c(F)c(F)c2F)ccc1Cl,CC#N,1171188-96-7,"N-((4-chloro-3-nitrophenyl)sulfonyl)-2,3,4,5,6-pentafluorobenzenesulfonamide",6.17,"[6.18, 6.16, 6.16, 6.18]","[ Kutt et al., J. Org. Chem., 2011, 76, 391-395., Kutt et al., Eur. J. Org. Chem., 2021, 2021 (9), 1407-1419., Kutt et al., Eur. J. Org. Chem., 2021, 2021 (9), 1407-1419., Paenurk et al., Chem. Sci., 2017, 8, 6964-6973.]",amine,acetonitrile
1182,CC(C)(C[NH3+])C[NH3+],O,0,0,8.18,[8.18],"[Hunt et al.. J. Chem. Inf. Model, 2020, 60 (6), 2989-2997.]",protonated amine,water
1183,CC[NH+]1CCCC1,O,0,0,10.43,[10.43],"[Hunt et al.. J. Chem. Inf. Model, 2020, 60 (6), 2989-2997.]",protonated amine,water
1184,Cc1cc(C)c(O)cc1C,O,0,0,10.57,[10.57],"[Hunt et al.. J. Chem. Inf. Model, 2020, 60 (6), 2989-2997.]",phenol,water
1185,CSc1ccc(O)cc1,O,0,0,9.53,[9.53],"[Hunt et al.. J. Chem. Inf. Model, 2020, 60 (6), 2989-2997.]",phenol,water
1186,CN(C)[P+](N)(N(C)C)N(C)C,O,-,amino-tris(dimethylamino)phosphanium,15.1,[15.1],"[Tshepelvitsh et al., Eur. J. Org. Chem., 2019, 6735-6748.]",amine,water
1187,CC(=O)c1ccc(-c2ccccc2O)cc1,O,0,0,10.78,[10.78],"[Hunt et al.. J. Chem. Inf. Model, 2020, 60 (6), 2989-2997.]",phenol,water
1188,Cc1nc2n(c(=O)c1CC[NH+]1CCC(c3noc4cc(F)ccc34)CC1)CCCC2,O,0,0,8.49,[8.49],"[Hunt et al.. J. Chem. Inf. Model, 2020, 60 (6), 2989-2997.]",protonated amine,water
1189,CCCC[NH+]1CC1,O,0,0,7.86,[7.86],"[Hunt et al.. J. Chem. Inf. Model, 2020, 60 (6), 2989-2997.]",protonated amine,water
1190,N#Cc1ccc(C(=O)N2CCC3(CC2)Nc2c(F)ccc(F)c2C(N)=[NH+]3)cn1,O,0,0,8.4,[8.4],"[Hunt et al.. J. Chem. Inf. Model, 2020, 60 (6), 2989-2997.]",protonated amine,water
1191,CCOC(=O)C(C#N)c1c(F)c(F)c(F)c(F)c1F,C(CCl)Cl,2340-87-6,"ethyl 2-cyano-2-(2,3,4,5,6-pentafluorophenyl)acetate",52.5,"[52.5, 52.5]","[Kutt et al., Eur. J. Org. Chem., 2021, 2021 (9), 1407-1419., Paenurk et al., Chem. Sci., 2017, 8, 6964-6973.]",C-H acid,DCE
1192,CCC(CC)NC(=O)c1c(C)nn(-c2ccccc2)c1NS(=O)(=O)c1ccc(C)cc1,O,0,0,4.2,[4.2],"[Hunt et al.. J. Chem. Inf. Model, 2020, 60 (6), 2989-2997.]",amine,water
1193,I,CS(=O)C,10034-85-2,iodane,-10.9,"[-10.9, -10.9]","[Kutt et al., Tetrahedron Lett., 2018., Kutt et al., Eur. J. Org. Chem., 2021, 2021 (9), 1407-1419.]",inorganic,DMSO
1194,Cc1c(F)c(F)c(C(C#N)c2c(F)c(F)c(C)c(F)c2F)c(F)c1F,C(CCl)Cl,58432-44-3,"2,2-bis(2,3,5,6-tetrafluoro-4-methylphenyl)acetonitrile",57.8,"[57.8, 57.8]","[Kutt et al., Eur. J. Org. Chem., 2021, 2021 (9), 1407-1419., Paenurk et al., Chem. Sci., 2017, 8, 6964-6973.]",C-H acid,DCE
1195,O=C(O)C(Br)CBr,CC#N,600-05-5,"2,3-dibromopropanoic acid",17.1,[17.1],"[Eckert et al., J. Comput. Chem., 2009, 30, 799-810.]",carboxylic acid,acetonitrile
1196,O=[N+]([O-])c1ccc(O)c([N+](=O)[O-])c1,CN(C)C=O,51-28-5,"2,4-dinitrophenol",6.33,[6.33],"[Kutt et al., Eur. J. Org. Chem., 2021, 2021 (9), 1407-1419.]",phenol,DMF
1197,C1CC[NH2+]CC1,CC#N,17523-59-0,piperidin-1-ium,19.35,[19.35],"[Tshepelvitsh et al., Eur. J. Org. Chem., 2019, 6735-6748.]",protonated amine,acetonitrile
1198,[NH3+]c1cccc(SC(F)(F)C(F)F)c1,O,0,0,3.39,[3.39],"[Hunt et al.. J. Chem. Inf. Model, 2020, 60 (6), 2989-2997.]",protonated amine,water
1199,Cc1ccc(S(=O)(=O)NS(=O)(=NS(=O)(=O)C(F)(F)F)c2ccc(Cl)cc2)cc1,CC#N,174788-93-3,N-(4-chloro-N-((trifluoromethyl)sulfonyl)phenylsulfonimidoyl)-4-methylbenzenesulfonamide,4.87,"[5.14, 4.81, 4.81, 4.78, 4.81]","[Eckert et al., J. Comput. Chem., 2009, 30, 799-810.,  Kutt et al., J. Org. Chem., 2011, 76, 391-395., Paenurk et al., Chem. Sci., 2017, 8, 6964-6973., Kutt et al., Eur. J. Org. Chem., 2021, 2021 (9), 1407-1419., Paenurk et al., Chem. Sci., 2017, 8, 6964-6973.]",amine,acetonitrile
1200,C=C[C@H]1C[N@@H+]2CC[C@H]1C[C@@H]2[C@@H](O)c1ccnc2ccc(OC)cc12,O,0,0,8.05,[8.05],"[Hunt et al.. J. Chem. Inf. Model, 2020, 60 (6), 2989-2997.]",protonated amine,water
1201,Cc1nc(C(=O)O)co1,O,0,0,3.59,[3.59],"[Hunt et al.. J. Chem. Inf. Model, 2020, 60 (6), 2989-2997.]",carboxylic acid,water
1202,Cc1ccc([N+](=O)[O-])cc1O,O,0,0,8.64,[8.64],"[Hunt et al.. J. Chem. Inf. Model, 2020, 60 (6), 2989-2997.]",phenol,water
1203,COc1c(N2C[C@@H]3CCC[NH2+][C@@H]3C2)c(F)cc2c(=O)c(C(=O)O)cn(C3CC3)c12,O,0,0,7.91,"[9.51, 6.31]","[Hunt et al.. J. Chem. Inf. Model, 2020, 60 (6), 2989-2997. ,   Hunt et al.. J. Chem. Inf. Model, 2020, 60 (6), 2989-2997.]",protonated amine,water
1204,CC[C@H]([NH3+])[C@@H](O)c1ccc(O)c(O)c1,O,0,0,8.42,[8.42],"[Hunt et al.. J. Chem. Inf. Model, 2020, 60 (6), 2989-2997.]",protonated amine,water
1205,O=S(=O)(C(c1c(F)c(F)c(F)c(F)c1F)S(=O)(=O)C(F)(F)F)C(F)(F)F,C(CCl)Cl,405074-81-9,"1-[bis(trifluoromethylsulfonyl)methyl]-2,3,4,5,6-pentafluorobenzene",35.9,[35.9],"[Paenurk et al., Chem. Sci., 2017, 8, 6964-6973.]",C-H acid,DCE
1206,Oc1ccccc1S,CC#N,1121-24-0,2-sulfanylphenol,19.34,[19.34],"[Eckert et al., J. Comput. Chem., 2009, 30, 799-810.]",phenol,acetonitrile
1207,O=C(NCC12CC3CC(CC(C3)C1)C2)c1cc(CN2C[C@H]3C[NH2+]C[C@@H](C2)O3)ccc1Cl,O,0,0,10,[10.0],"[Hunt et al.. J. Chem. Inf. Model, 2020, 60 (6), 2989-2997.]",protonated amine,water
1208,CN1CCC[NH+]2CCCN=C12,O,-,"1-methyl-3,4,5,6,7,8-hexahydro-2H-pyrimido[1,2-a]pyrimidin-5-ium",15,[15.0],"[Tshepelvitsh et al., Eur. J. Org. Chem., 2019, 6735-6748.]",protonated amine,water
1209,O=C(O)c1ncc(-c2ccc(Cl)cc2)o1,O,0,0,1.68,[1.68],"[Hunt et al.. J. Chem. Inf. Model, 2020, 60 (6), 2989-2997.]",carboxylic acid,water
1210,Cc1nn(-c2ccc(F)cc2)c(NS(=O)(=O)c2ccc(C#N)cc2)c1C(=O)N[C@@H](C)C(C)(C)C,O,0,0,3,[3.0],"[Hunt et al.. J. Chem. Inf. Model, 2020, 60 (6), 2989-2997.]",amine,water
1211,C[NH2+]C,CS(=O)C,49784-85-2,dimethylazanium,10.3,[10.3],"[Tshepelvitsh et al., Eur. J. Org. Chem., 2019, 6735-6748.]",protonated amine,DMSO
1212,NC(=O)c1cnc(N)[nH+]c1,O,0,0,2.06,[2.06],"[Hunt et al.. J. Chem. Inf. Model, 2020, 60 (6), 2989-2997.]",protonated amine,water
1213,CC1(C)CC(O)CC(C)(C)[NH2+]1,O,0,0,10.05,[10.05],"[Hunt et al.. J. Chem. Inf. Model, 2020, 60 (6), 2989-2997.]",protonated amine,water
1214,C[C@@H]1C[C@H](Oc2ccccc2)CC(C)(C)[NH2+]1,O,0,0,9.54,[9.54],"[Hunt et al.. J. Chem. Inf. Model, 2020, 60 (6), 2989-2997.]",protonated amine,water
1215,CC[C@@H](C)[NH3+],O,0,0,10.56,[10.56],"[Hunt et al.. J. Chem. Inf. Model, 2020, 60 (6), 2989-2997.]",protonated amine,water
1216,C[Si](C)(C)C[NH2+]C1CCCCC1,O,0,0,10.96,[10.96],"[Hunt et al.. J. Chem. Inf. Model, 2020, 60 (6), 2989-2997.]",protonated amine,water
1217,C[N@H+]1CCCC(=O)[C@H](O)CCC1,O,0,0,9.2,[9.2],"[Hunt et al.. J. Chem. Inf. Model, 2020, 60 (6), 2989-2997.]",protonated amine,water
1218,C[NH+](C)Cl,O,0,0,0.46,[0.46],"[Hunt et al.. J. Chem. Inf. Model, 2020, 60 (6), 2989-2997.]",protonated amine,water
1219,[NH3+]c1ccc2c(c1)CCC2,O,0,0,5.31,[5.31],"[Hunt et al.. J. Chem. Inf. Model, 2020, 60 (6), 2989-2997.]",protonated amine,water
1220,Cc1ccc2cccc(O)c2n1,O,0,0,10.31,[10.31],"[Hunt et al.. J. Chem. Inf. Model, 2020, 60 (6), 2989-2997.]",phenol,water
1221,c1ccc(C(CC[NH+]2CCOCC2)c2ccccc2)cc1,O,0,0,7.2,[7.2],"[Hunt et al.. J. Chem. Inf. Model, 2020, 60 (6), 2989-2997.]",protonated amine,water
1222,CC(C)[NH2+]c1ccccc1,O,0,0,5.77,[5.77],"[Hunt et al.. J. Chem. Inf. Model, 2020, 60 (6), 2989-2997.]",protonated amine,water
1223,COc1ccc(S(N)(=O)=O)cc1,CC#N,1129-26-6,4-methoxybenzenesulfonamide,25.09,[25.09],"[Eckert et al., J. Comput. Chem., 2009, 30, 799-810.]",amine,acetonitrile
1224,O=C(O)C(O)C(O)C(=O)O,CC#N,526-83-0,"2,3-dihydroxybutanedioic acid",15.1,[15.1],"[Eckert et al., J. Comput. Chem., 2009, 30, 799-810.]",carboxylic acid,acetonitrile
1225,C[NH3+],C1CCOC1,17000-00-9,methylazanium,13.5,[13.5],"[Tshepelvitsh et al., Eur. J. Org. Chem., 2019, 6735-6748.]",protonated amine,THF
1226,CNc1nccc[nH+]1,O,0,0,3.79,[3.79],"[Hunt et al.. J. Chem. Inf. Model, 2020, 60 (6), 2989-2997.]",protonated amine,water
1227,c1c[nH][nH+]c1,CS(=O)C,,1H-pyrazol-2-ium,1,[1.0],"[Tshepelvitsh et al., Eur. J. Org. Chem., 2019, 6735-6748.]",protonated amine,DMSO
1228,CCCC[N@@H+]1CCC[C@H]1C,O,0,0,10.61,[10.61],"[Hunt et al.. J. Chem. Inf. Model, 2020, 60 (6), 2989-2997.]",protonated amine,water
1229,CC(C)C(C(C)C)[NH+](C)C,O,0,0,9.96,[9.96],"[Hunt et al.. J. Chem. Inf. Model, 2020, 60 (6), 2989-2997.]",protonated amine,water
1230,O=S(=O)(NS(=O)(=O)c1c(F)c(F)c(F)c(F)c1F)c1ccc(Cl)cc1,CC#N,1171188-85-4,"N-((4-chlorophenyl)sulfonyl)-2,3,4,5,6-pentafluorobenzenesulfonamide",7.56,"[7.57, 7.55, 7.55, 7.57]","[ Kutt et al., J. Org. Chem., 2011, 76, 391-395., Kutt et al., Eur. J. Org. Chem., 2021, 2021 (9), 1407-1419., Kutt et al., Eur. J. Org. Chem., 2021, 2021 (9), 1407-1419., Paenurk et al., Chem. Sci., 2017, 8, 6964-6973.]",amine,acetonitrile
1231,[NH3+]c1ccc(C(=O)c2ccccc2)cc1,O,0,0,2.17,[2.17],"[Hunt et al.. J. Chem. Inf. Model, 2020, 60 (6), 2989-2997.]",protonated amine,water
1232,COc1ccc(C(=NS(=O)(=O)C(F)(F)F)NS(=O)(=O)C(F)(F)F)cc1,CC#N,500721-87-9,"4-methoxy-N,N'-bis(trifluoromethylsulfonyl)benzenecarboximidamide",6.16,"[6.41, 6.09, 6.05, 6.09]","[Eckert et al., J. Comput. Chem., 2009, 30, 799-810.,  Kutt et al., J. Org. Chem., 2011, 76, 391-395., Kutt et al., Eur. J. Org. Chem., 2021, 2021 (9), 1407-1419., Paenurk et al., Chem. Sci., 2017, 8, 6964-6973.]",amine,acetonitrile
1233,O=C(O)CCCC[C@@H]1CCSS1,O,0,0,5.4,[5.4],"[Hunt et al.. J. Chem. Inf. Model, 2020, 60 (6), 2989-2997.]",carboxylic acid,water
1234,O=C1NS(=O)(=O)c2ccccc21,CS(=O)C,128-44-9,"1,1-dioxo-1,2-benzothiazol-3-one",4,"[4.0, 4.0]","[Kutt et al., Tetrahedron Lett., 2018., Kutt et al., Eur. J. Org. Chem., 2021, 2021 (9), 1407-1419.]",amine,DMSO
1235,O=C(O)c1oc(-c2ccccc2)nc1-c1ccccc1,O,0,0,-1.44,[-1.44],"[Hunt et al.. J. Chem. Inf. Model, 2020, 60 (6), 2989-2997.]",carboxylic acid,water
1236,O=S(=O)(F)C(S(=O)(=O)F)S(=O)(=O)F,C(CCl)Cl,75533-68-5,methanetrisulfonyl fluoride,31.4,[31.4],"[Paenurk et al., Chem. Sci., 2017, 8, 6964-6973.]",C-H acid,DCE
1237,CCCc1ccc(O)c(CCC)c1,O,0,0,10.91,[10.91],"[Hunt et al.. J. Chem. Inf. Model, 2020, 60 (6), 2989-2997.]",phenol,water
1238,N#CC(O)=C(C#N)C#N,C(CCl)Cl,27062-39-1,"2-hydroxyethene-1,1,2-tricarbonitrile",36.16666667,"[36.3, 36.3, 35.9]","[Kutt et al., Eur. J. Org. Chem., 2021, 2021 (9), 1407-1419., Paenurk et al., Chem. Sci., 2017, 8, 6964-6973., Kutt et al., Tetrahedron Lett., 2018.]",hydroxyl alcohol,DCE
1239,CC(C)c1cc(O)c(=O)c(Br)cc1Br,O,0,0,4.28,[4.28],"[Hunt et al.. J. Chem. Inf. Model, 2020, 60 (6), 2989-2997.]",phenol,water
1240,C[C@@H]1CCCC[NH2+]1,O,0,0,11.08,[11.08],"[Hunt et al.. J. Chem. Inf. Model, 2020, 60 (6), 2989-2997.]",protonated amine,water
1241,NC(Nc1ccccc1)=[NH+]c1ccccc1,CS(=O)C,-,[amino(anilino)methylidene]-phenylazanium,8.6,[8.6],"[Tshepelvitsh et al., Eur. J. Org. Chem., 2019, 6735-6748.]",protonated amine,DMSO
1242,O=C(O)c1c(Cl)cccc1CO,O,0,0,2.26,[2.26],"[Hunt et al.. J. Chem. Inf. Model, 2020, 60 (6), 2989-2997.]",carboxylic acid,water
1243,CC(C)C[NH+]1CCOCC1,O,0,0,7.82,[7.82],"[Hunt et al.. J. Chem. Inf. Model, 2020, 60 (6), 2989-2997.]",protonated amine,water
1244,O=C(O)c1ccccc1Cl,CC#N,118-91-2,2-chlorobenzoic acid,19,[19.0],"[Eckert et al., J. Comput. Chem., 2009, 30, 799-810.]",carboxylic acid,acetonitrile