,Solute SMILES,Solvent SMILES,Solute CAS,Solute IUPAC,pKa (avg),pKa (all),Source (all),Acid type,Solvent name
1740,COc1nc(C)nc(NC(=O)NS(=O)(=O)c2ccccc2CCC(F)(F)F)n1,O,0,0,3.76,[3.76],"[Hunt et al.. J. Chem. Inf. Model, 2020, 60 (6), 2989-2997.]",amine,water
1741,O=[N+]([O-])C([N+](=O)[O-])[N+](=O)[O-],CC#N,517-25-9,trinitromethane,7.3,[7.3],"[Eckert et al., J. Comput. Chem., 2009, 30, 799-810.]",C-H acid,acetonitrile
1742,O=C([O-])[C@H](Cc1ccccc1)[NH+]1CCC(CN2CCC(Oc3ccc(Cl)c(Cl)c3)CC2)CC1,O,0,0,9.25,[9.25],"[Hunt et al.. J. Chem. Inf. Model, 2020, 60 (6), 2989-2997.]",protonated amine,water
1743,O=C(O)/C=C/c1ccc[nH+]c1,O,0,0,4.4,"[4.4, 4.4]","[Hunt et al.. J. Chem. Inf. Model, 2020, 60 (6), 2989-2997. ,   Hunt et al.. J. Chem. Inf. Model, 2020, 60 (6), 2989-2997.]",protonated amine,water
1744,CCCCCC(=O)O,O,0,0,4.849,[4.849],"[Hunt et al.. J. Chem. Inf. Model, 2020, 60 (6), 2989-2997.]",carboxylic acid,water
1745,[NH3+]c1cc(I)cc(I)c1,O,0,0,2.368,[2.368],"[Hunt et al.. J. Chem. Inf. Model, 2020, 60 (6), 2989-2997.]",protonated amine,water
1746,N#CC(c1c(F)c(F)nc(F)c1F)c1c(F)c(F)c(F)c(F)c1F,C(CCl)Cl,62325-51-3,"2-(2,3,4,5,6-pentafluorophenyl)-2-(2,3,5,6-tetrafluoropyridin-4-yl)acetonitrile",50.5,"[50.5, 50.5]","[Paenurk et al., Chem. Sci., 2017, 8, 6964-6973., Kutt et al., Eur. J. Org. Chem., 2021, 2021 (9), 1407-1419.]",C-H acid,DCE
1747,CCCC[C@H]([NH3+])c1ccc(Cl)cc1,O,0,0,8.85,[8.85],"[Hunt et al.. J. Chem. Inf. Model, 2020, 60 (6), 2989-2997.]",protonated amine,water
1748,CC(C)N1CC[NH+](Cc2cnc(-c3cc(-c4cccc5[nH]ccc45)cc4[nH]ncc34)o2)CC1,O,0,0,8.26,[8.26],"[Hunt et al.. J. Chem. Inf. Model, 2020, 60 (6), 2989-2997.]",protonated amine,water
1749,O=[N+]([O-])c1c[nH]c2ccccc12,O,4770-03-0,3-nitro-1H-indole,10.12,[10.12],"[Kutt et al., Eur. J. Org. Chem., 2021, 2021 (9), 1407-1419.]",amine,water
1750,[NH2+]=C1CCCC1,O,0,0,8.95,[8.95],"[Hunt et al.. J. Chem. Inf. Model, 2020, 60 (6), 2989-2997.]",protonated amine,water
1751,COc1ccc([NH3+])cc1,CC#N,,(4-methoxyphenyl)azanium,11.86,[11.86],"[Lokov et al., Eur. J. Org. Chem., 2017, 30, 4475-4489.]",protonated amine,acetonitrile
1752,N#CC(C#N)=CC(C#N)C#N,C(CCl)Cl,32019-26-4,"prop-1-ene-1,1,3,3-tetracarbonitrile",34.3,[34.3],"[Paenurk et al., Chem. Sci., 2017, 8, 6964-6973.]",C-H acid,DCE
1753,Cc1c(C2(c3cc(Br)c(O)c(Br)c3C)OS(=O)(=O)c3ccccc32)cc(Br)c(O)c1Br,C(CCl)Cl,76-60-8,"2,6-dibromo-4-[3-(3,5-dibromo-4-hydroxy-2-methylphenyl)-1,1-dioxo-2,16-benzoxathiol-3-yl]-3-methylphenol",45.2,[45.2],"[Paenurk et al., Chem. Sci., 2017, 8, 6964-6973.]",phenol,DCE
1754,O=C(c1ccc(C(F)(F)F)cc1)N(O)c1ccccc1,O,0,0,7.98,[7.98],"[Hunt et al.. J. Chem. Inf. Model, 2020, 60 (6), 2989-2997.]",acidic hydroxyl,water
1755,c1c[nH][nH+]c1,O,,1H-pyrazol-2-ium,2.48,"[2.48, 2.48]","[Lokov et al., Eur. J. Org. Chem., 2017, 30, 4475-4489., Tshepelvitsh et al., Eur. J. Org. Chem., 2019, 6735-6748.]",protonated amine,water
1756,N#Cc1ccc(Cl)cc1O[C@H](CC[NH3+])c1ccccc1,O,0,0,10.3,[10.3],"[Hunt et al.. J. Chem. Inf. Model, 2020, 60 (6), 2989-2997.]",protonated amine,water
1757,O=C(O)C(Cl)(Cl)Cl,O,0,0,0.51,[0.51],"[Hunt et al.. J. Chem. Inf. Model, 2020, 60 (6), 2989-2997.]",carboxylic acid,water
1758,N#CC(c1c(F)c(F)c(F)c(F)c1F)c1c(F)c(F)c(C(F)(F)F)c(F)c1F,CS(=O)C,42238-35-7,"2-(2,3,4,5,6-pentafluorophenyl)-2-[2,3,5,6-tetrafluoro-4-(trifluoromethyl)phenyl]acetonitrile",4.9,"[4.9, 4.9]","[Kutt et al., Tetrahedron Lett., 2018., Paenurk et al., Chem. Sci., 2017, 8, 6964-6973.]",C-H acid,DMSO
1759,O=C1NS(=O)(=O)c2ccccc21,O,128-44-9,"1,1-dioxo-1,2-benzothiazol-3-one",1.8,"[1.8, 1.8]","[Kutt et al., Tetrahedron Lett., 2018., Kutt et al., Eur. J. Org. Chem., 2021, 2021 (9), 1407-1419.]",amine,water
1760,COc1ccc([C@@]2(c3cccc(-c4cncnc4)c3)N=C(C)C(N)=[NH+]2)cc1C,O,0,0,5.83,[5.83],"[Hunt et al.. J. Chem. Inf. Model, 2020, 60 (6), 2989-2997.]",protonated amine,water
1761,[NH3+]Cc1cccc([N+](=O)[O-])c1,O,0,0,8.65,[8.65],"[Hunt et al.. J. Chem. Inf. Model, 2020, 60 (6), 2989-2997.]",protonated amine,water
1762,C[NH2+][C@@H](C)[C@@H](O)c1ccccc1,O,0,0,9.86,[9.86],"[Hunt et al.. J. Chem. Inf. Model, 2020, 60 (6), 2989-2997.]",protonated amine,water
1763,Cc1cnc2c(O)cccc2c1C,O,0,0,10.05,[10.05],"[Hunt et al.. J. Chem. Inf. Model, 2020, 60 (6), 2989-2997.]",phenol,water
1764,N#CC(S(=O)(=O)C(F)(F)F)S(=O)(=O)C(F)(F)F,C(CCl)Cl,174191-48-1,"2,2-bis((trifluoromethyl)sulfonyl)acetonitrile",30,[30.0],"[Paenurk et al., Chem. Sci., 2017, 8, 6964-6973.]",C-H acid,DCE
1765,OCC(F)F,O,0,0,13.11,[13.11],"[Hunt et al.. J. Chem. Inf. Model, 2020, 60 (6), 2989-2997.]",hydroxyl alcohol,water
1766,C/C(=N\NC(=O)Nc1cc(F)cc(F)c1)c1ncccc1C(=O)O,O,0,0,3.18,[3.18],"[Hunt et al.. J. Chem. Inf. Model, 2020, 60 (6), 2989-2997.]",carboxylic acid,water
1767,NC(Nc1ccccc1)=[NH+]c1ccccc1,O,-,[amino(anilino)methylidene]-phenylazanium,10.02,[10.02],"[Tshepelvitsh et al., Eur. J. Org. Chem., 2019, 6735-6748.]",protonated amine,water
1768,CCCC(=O)NO,O,0,0,9.48,[9.48],"[Hunt et al.. J. Chem. Inf. Model, 2020, 60 (6), 2989-2997.]",amine,water
1769,[NH3+]CCCBr,O,0,0,8.93,[8.93],"[Hunt et al.. J. Chem. Inf. Model, 2020, 60 (6), 2989-2997.]",protonated amine,water
1770,CN(C)[P+](N)(N(C)C)N(C)C,CS(=O)C,-,amino-tris(dimethylamino)phosphanium,16.4,[16.4],"[Tshepelvitsh et al., Eur. J. Org. Chem., 2019, 6735-6748.]",amine,DMSO
1771,O=C(O)Cc1ccc(Br)cc1,O,0,0,4.19,[4.19],"[Hunt et al.. J. Chem. Inf. Model, 2020, 60 (6), 2989-2997.]",carboxylic acid,water
1772,CC(C)[NH2+]c1ccc([N+](=O)[O-])cc1,O,0,0,1.32,[1.32],"[Hunt et al.. J. Chem. Inf. Model, 2020, 60 (6), 2989-2997.]",protonated amine,water
1773,COc1cccc(C[NH2+]c2ccc([N+](=O)[O-])cc2[N+](=O)[O-])c1,O,0,0,-5.07,[-5.07],"[Hunt et al.. J. Chem. Inf. Model, 2020, 60 (6), 2989-2997.]",protonated amine,water
1774,CC1(C)CCC[NH2+]C1,O,0,0,10.38,[10.38],"[Hunt et al.. J. Chem. Inf. Model, 2020, 60 (6), 2989-2997.]",protonated amine,water
1775,COC(=O)c1ccccc1[NH3+],O,0,0,2.23,[2.23],"[Hunt et al.. J. Chem. Inf. Model, 2020, 60 (6), 2989-2997.]",protonated amine,water
1776,[NH3+]c1ccc(C2CC2)cc1,O,0,0,4.9,[4.9],"[Hunt et al.. J. Chem. Inf. Model, 2020, 60 (6), 2989-2997.]",protonated amine,water
1777,CCCN(CCC)[C@@H]1CCc2c(O)cccc2C1,O,0,0,9.25,[9.25],"[Hunt et al.. J. Chem. Inf. Model, 2020, 60 (6), 2989-2997.]",phenol,water
1778,C=CC[NH2+]C,O,0,0,10.11,[10.11],"[Hunt et al.. J. Chem. Inf. Model, 2020, 60 (6), 2989-2997.]",protonated amine,water
1779,[H]/N=C(/N)SCCc1cccc(CCSC(N)=[NH2+])c1,O,0,0,11,[11.0],"[Hunt et al.. J. Chem. Inf. Model, 2020, 60 (6), 2989-2997.]",protonated amine,water
1780,Oc1c(Br)cc(Br)cc1Br,CC#N,118-79-6,"2,4,6-tribromophenol",20.345,"[20.35, 20.34, 20.34, 20.35]","[Eckert et al., J. Comput. Chem., 2009, 30, 799-810., Kutt et al., Eur. J. Org. Chem., 2021, 2021 (9), 1407-1419., Kutt et al., Eur. J. Org. Chem., 2021, 2021 (9), 1407-1419., Paenurk et al., Chem. Sci., 2017, 8, 6964-6973.]",phenol,acetonitrile
1781,CC[NH+](CC)CCNC(=O)c1ccc(NC(C)=O)cc1,O,0,0,9.14,[9.14],"[Hunt et al.. J. Chem. Inf. Model, 2020, 60 (6), 2989-2997.]",protonated amine,water
1782,CC(=O)c1cccc(C(=O)O)c1,O,0,0,3.83,[3.83],"[Hunt et al.. J. Chem. Inf. Model, 2020, 60 (6), 2989-2997.]",carboxylic acid,water
1783,O=C(O)/C=C(/c1ccccc1)C(F)(F)F,O,0,0,2.41,[2.41],"[Hunt et al.. J. Chem. Inf. Model, 2020, 60 (6), 2989-2997.]",carboxylic acid,water
1784,CCCN(CCC)CCc1ccc(O)c2c1CC(=O)N2,O,0,0,8.35,[8.35],"[Hunt et al.. J. Chem. Inf. Model, 2020, 60 (6), 2989-2997.]",phenol,water
1785,CC(C)[NH2+]C[C@H](O)c1ccc(O)cc1,O,0,0,9.57,[9.57],"[Hunt et al.. J. Chem. Inf. Model, 2020, 60 (6), 2989-2997.]",protonated amine,water
1786,O=C(O)[C@H]1CCC[NH2+]C1,O,0,0,6.995,"[10.64, 3.35]","[Hunt et al.. J. Chem. Inf. Model, 2020, 60 (6), 2989-2997. ,   Hunt et al.. J. Chem. Inf. Model, 2020, 60 (6), 2989-2997.]",protonated amine,water
1787,N#CC1=CC(C#N)C=C1C#N,C(CCl)Cl,215395-09-8,"cyclopenta-2,5-diene-1,2,4-tricarbonitrile",38,"[38.0, 38.0]","[Kutt et al., Eur. J. Org. Chem., 2021, 2021 (9), 1407-1419., Paenurk et al., Chem. Sci., 2017, 8, 6964-6973.]",C-H acid,DCE
1788,O=[N+]([O-])c1cc([N+](=O)[O-])c(O)c([N+](=O)[O-])c1,O,88-89-1,"2,4,6-trinitrophenol",0.33,"[0.3, 0.4, 0.29]","[Kutt et al., Tetrahedron Lett., 2018., Kutt et al., Eur. J. Org. Chem., 2021, 2021 (9), 1407-1419. ,   Hunt et al.. J. Chem. Inf. Model, 2020, 60 (6), 2989-2997.]",phenol,water
1789,NC1=[NH+][C@H](c2ccccc2)Nc2ccccc21,O,0,0,9.83,[9.83],"[Hunt et al.. J. Chem. Inf. Model, 2020, 60 (6), 2989-2997.]",protonated amine,water
1790,O=C1C(O)=C(C(C(O)=C1Oc2ccccc2)=O)Oc3ccccc3,O,0,0,3,[3.0],"[Hunt et al.. J. Chem. Inf. Model, 2020, 60 (6), 2989-2997.]",hydroxyl alcohol,water
1791,CCn1cc(C(=O)O)c(=O)c2cc(F)c(N3CC[NH2+][C@H](C)C3)c(F)c21,O,0,0,5.82,[5.82],"[Hunt et al.. J. Chem. Inf. Model, 2020, 60 (6), 2989-2997.]",protonated amine,water
1792,Oc1ccccc1Br,O,0,0,8.39,[8.39],"[Hunt et al.. J. Chem. Inf. Model, 2020, 60 (6), 2989-2997.]",phenol,water
1793,CC(=O)CCCC[NH+](C)C,O,0,0,9.6,[9.6],"[Hunt et al.. J. Chem. Inf. Model, 2020, 60 (6), 2989-2997.]",protonated amine,water
1794,N#CC(C#N)=C(C#N)CC(C#N)=C(C#N)C#N,C(CCl)Cl,1261286-78-5,,33.5,[33.5],"[Paenurk et al., Chem. Sci., 2017, 8, 6964-6973.]",C-H acid,DCE
1795,O=C(O)/C=C/c1ccccc1Br,O,0,0,4.33,[4.33],"[Hunt et al.. J. Chem. Inf. Model, 2020, 60 (6), 2989-2997.]",carboxylic acid,water
1796,Cc1ccc(S(=O)(=O)NC(=O)N2CCC(N3CCC(Oc4ccc(Cl)c(C)c4Cl)CC3)CC2)cc1,O,0,0,3.2,[3.2],"[Hunt et al.. J. Chem. Inf. Model, 2020, 60 (6), 2989-2997.]",amine,water
1797,O=C(O)CCc1ccccc1Cl,O,0,0,4.58,[4.58],"[Hunt et al.. J. Chem. Inf. Model, 2020, 60 (6), 2989-2997.]",carboxylic acid,water
1798,Oc1ccc2ccccc2n1,O,0,0,11.76,[11.76],"[Hunt et al.. J. Chem. Inf. Model, 2020, 60 (6), 2989-2997.]",phenol,water
1799,C[C@H]1C[NH+]=C(C(C)(C)C)S1,O,0,0,5.027,[5.027],"[Hunt et al.. J. Chem. Inf. Model, 2020, 60 (6), 2989-2997.]",protonated amine,water
1800,O=C(CCCCC(O)=O)O,O,0,0,5.41,[5.41],"[Hunt et al.. J. Chem. Inf. Model, 2020, 60 (6), 2989-2997.]",carboxylic acid,water
1801,Oc1ccccc1C(F)(F)F,O,444-30-4,2-(trifluoromethyl)phenol,8.42,[8.42],"[Kutt et al., Eur. J. Org. Chem., 2021, 2021 (9), 1407-1419.]",phenol,water
1802,CC(C)c1ccc(Br)c(=O)c(O)c1Br,O,0,0,4.44,[4.44],"[Hunt et al.. J. Chem. Inf. Model, 2020, 60 (6), 2989-2997.]",phenol,water
1803,O=[N+]([O-])c1cc2c(c([N+](=O)[O-])c1)Nc1c(cccc1[N+](=O)[O-])O2,CC#N,24050-30-4,"1,3,9-trinitro-10H-phenoxazine",21.9,[21.9],"[Eckert et al., J. Comput. Chem., 2009, 30, 799-810.]",amine,acetonitrile
1804,[NH3+]c1cccc2ccc([N+](=O)[O-])cc12,O,0,0,2.55,[2.55],"[Hunt et al.. J. Chem. Inf. Model, 2020, 60 (6), 2989-2997.]",protonated amine,water
1805,C[C@@H](C=C(c1ccccc1)c1ccccc1)[NH+](C)C,O,0,0,9.21,[9.21],"[Hunt et al.. J. Chem. Inf. Model, 2020, 60 (6), 2989-2997.]",protonated amine,water
1806,Cc1ccc(Cl)cc1[NH3+],O,0,0,3.85,[3.85],"[Hunt et al.. J. Chem. Inf. Model, 2020, 60 (6), 2989-2997.]",protonated amine,water
1807,O=C(O)c1ccccc1/N=N/c1ccc(O)c(O)c1,O,0,0,3.12,[3.12],"[Hunt et al.. J. Chem. Inf. Model, 2020, 60 (6), 2989-2997.]",carboxylic acid,water
1808,COc1cc(OC)nc(NC(=O)NS(=O)(=O)c2cc(NC=O)ccc2C(=O)N(C)C)n1,O,0,0,4.6,[4.6],"[Hunt et al.. J. Chem. Inf. Model, 2020, 60 (6), 2989-2997.]",amine,water
1809,CC(C)(C)[NH2+]c1ccccc1,O,0,0,7,[7.0],"[Hunt et al.. J. Chem. Inf. Model, 2020, 60 (6), 2989-2997.]",protonated amine,water
1810,COc1cccc([C@@]2(O)CCCC[C@@H]2C[NH+](C)C)c1,O,0,0,8.3,[8.3],"[Hunt et al.. J. Chem. Inf. Model, 2020, 60 (6), 2989-2997.]",protonated amine,water
1811,O=[N+]([O-])c1ccc2cc[nH]c2c1,O,4769-96-4,6-nitro-1H-indole,14.4,[14.4],"[Kutt et al., Eur. J. Org. Chem., 2021, 2021 (9), 1407-1419.]",amine,water
1812,CC(=O)OCCCC[NH+](C)C,O,0,0,9.4,[9.4],"[Hunt et al.. J. Chem. Inf. Model, 2020, 60 (6), 2989-2997.]",protonated amine,water
1813,C[NH+]1CCCC1,O,0,0,10.3,[10.3],"[Hunt et al.. J. Chem. Inf. Model, 2020, 60 (6), 2989-2997.]",protonated amine,water
1814,Cc1cc(C)cc([NH3+])c1,O,0,0,4.91,[4.91],"[Hunt et al.. J. Chem. Inf. Model, 2020, 60 (6), 2989-2997.]",protonated amine,water
1815,COCC[NH3+],O,0,0,9.61,[9.61],"[Hunt et al.. J. Chem. Inf. Model, 2020, 60 (6), 2989-2997.]",protonated amine,water
1816,CC[NH+](CC)CCNC(=O)c1cc(Cl)c(N)cc1OC,O,0,0,9.51,[9.51],"[Hunt et al.. J. Chem. Inf. Model, 2020, 60 (6), 2989-2997.]",protonated amine,water
1817,CCOc1ccc(-c2ccccc2O)cc1,O,0,0,11.39,[11.39],"[Hunt et al.. J. Chem. Inf. Model, 2020, 60 (6), 2989-2997.]",phenol,water
1818,CC(C)C[NH3+],C1CCOC1,58471-06-0,2-methylpropylazanium,13,[13.0],"[Tshepelvitsh et al., Eur. J. Org. Chem., 2019, 6735-6748.]",protonated amine,THF
1819,C[NH2+]Cc1ccc([N+](=O)[O-])cc1,O,0,0,8.63,[8.63],"[Hunt et al.. J. Chem. Inf. Model, 2020, 60 (6), 2989-2997.]",protonated amine,water
1820,O=[N+]([O-])c1ccc([N+](=O)[O-])c(O)c1,O,0,0,5.21,[5.21],"[Hunt et al.. J. Chem. Inf. Model, 2020, 60 (6), 2989-2997.]",phenol,water
1821,O=[N+]([O-])c1cc(F)cc([N+](=O)[O-])c1O,CC#N,364-32-9,"4-fluoro-2,6-dinitrophenol",16.17,"[16.17, 16.17]","[Kutt et al., Eur. J. Org. Chem., 2021, 2021 (9), 1407-1419., Kutt et al., Eur. J. Org. Chem., 2021, 2021 (9), 1407-1419.]",phenol,acetonitrile
1822,O=C(O)c1ccccc1-c1ccccc1C(=O)O,CC#N,482-05-3,2-(2-carboxyphenyl)benzoic acid,15.7,[15.7],"[Eckert et al., J. Comput. Chem., 2009, 30, 799-810.]",carboxylic acid,acetonitrile
1823,NS(=O)(=O)c1cccc(C(F)(F)F)c1,CC#N,672-58-2,3-(trifluoromethyl)benzenesulfonamide,24.365,"[23.53, 25.2]","[Eckert et al., J. Comput. Chem., 2009, 30, 799-810., Kutt et al., Eur. J. Org. Chem., 2021, 2021 (9), 1407-1419.]",amine,acetonitrile
1824,CC1=CNC(=O)[NH2+]C1=O,O,,"5-methyl-1H-pyrimidin-3-ium-2,4-dione",0,[0.0],"[Lokov et al., Eur. J. Org. Chem., 2017, 30, 4475-4489.]",protonated amine,water
1825,COc1cccc(C[NH3+])c1O,O,0,0,10.52,[10.52],"[Hunt et al.. J. Chem. Inf. Model, 2020, 60 (6), 2989-2997.]",protonated amine,water
1826,O=C(O)c1c(Br)cc(Br)cc1Br,O,0,0,1.41,[1.41],"[Hunt et al.. J. Chem. Inf. Model, 2020, 60 (6), 2989-2997.]",carboxylic acid,water
1827,CC[NH+](CC)CCC(C#N)(c1ccccc1)c1ccccc1,O,0,0,9.08,[9.08],"[Hunt et al.. J. Chem. Inf. Model, 2020, 60 (6), 2989-2997.]",protonated amine,water
1828,C[NH+]1[C@H]2CC[C@@H]1CC(O)C2,O,0,0,10.06,[10.06],"[Hunt et al.. J. Chem. Inf. Model, 2020, 60 (6), 2989-2997.]",protonated amine,water
1829,CC[NH+](CC)CC(c1ccccc1)c1ccccc1,O,0,0,9.8,[9.8],"[Hunt et al.. J. Chem. Inf. Model, 2020, 60 (6), 2989-2997.]",protonated amine,water
1830,CCOC(=O)C1(c2ccccc2)CC[NH+](C)CC1,O,0,0,10.5,[10.5],"[Hunt et al.. J. Chem. Inf. Model, 2020, 60 (6), 2989-2997.]",protonated amine,water
1831,N#CC(C#N)S(=O)(=O)c1ccc([N+](=O)[O-])cc1,CC#N,1207878-53-2,2-((4-nitrophenyl)sulfonyl)malononitrile,6.04,"[6.06, 6.06, 6.01, 6.01, 6.06]","[ Kutt et al., J. Org. Chem., 2011, 76, 391-395., Paenurk et al., Chem. Sci., 2017, 8, 6964-6973., Kutt et al., Eur. J. Org. Chem., 2021, 2021 (9), 1407-1419., Kutt et al., Eur. J. Org. Chem., 2021, 2021 (9), 1407-1419., Paenurk et al., Chem. Sci., 2017, 8, 6964-6973.]",C-H acid,acetonitrile
1832,COC(=O)[C@@H]1[C@@H](OC(=O)c2ccccc2)C[C@@H]2CC[C@H]1[N@H+]2C,O,0,0,8.7,[8.7],"[Hunt et al.. J. Chem. Inf. Model, 2020, 60 (6), 2989-2997.]",protonated amine,water
1833,Cc1ccc(O)cc1,CC#N,106-44-5,4-methylphenol,27.45,[27.45],"[Eckert et al., J. Comput. Chem., 2009, 30, 799-810.]",phenol,acetonitrile
1834,Cc1c(C#N)c(C#N)c(C#N)c(C#N)c1C#N,CC#N,1213-77-0,"6-methylbenzene-1,2,3,4,5-pentacarbonitrile",20.14,"[20.14, 20.14, 20.14]","[Eckert et al., J. Comput. Chem., 2009, 30, 799-810., Kutt et al., Eur. J. Org. Chem., 2021, 2021 (9), 1407-1419., Kutt et al., Eur. J. Org. Chem., 2021, 2021 (9), 1407-1419.]",C-H acid,acetonitrile
1835,CN/C(NC#N)=[NH+]/CCSCc1nc[nH]c1C,O,0,0,6.97,[6.97],"[Hunt et al.. J. Chem. Inf. Model, 2020, 60 (6), 2989-2997.]",protonated amine,water
1836,O=C(O)c1ccc2c(c1)C(=O)c1ccccc1C2=O,O,0,0,3.42,[3.42],"[Hunt et al.. J. Chem. Inf. Model, 2020, 60 (6), 2989-2997.]",carboxylic acid,water
1837,CCCC[NH2+]CCCC,C1CCOC1,-,dibutylazanium,12.6,[12.6],"[Tshepelvitsh et al., Eur. J. Org. Chem., 2019, 6735-6748.]",protonated amine,THF
1838,Cc1ccc(S(N)(=O)=O)cc1C,CC#N,6326-18-7,"3,4-dimethylbenzenesulfonamide",25.01,[25.01],"[Eckert et al., J. Comput. Chem., 2009, 30, 799-810.]",amine,acetonitrile
1839,CC[P@@H](=O)O,O,0,0,3.29,[3.29],"[Hunt et al.. J. Chem. Inf. Model, 2020, 60 (6), 2989-2997.]",acidic hydroxyl,water
1840,NS(=O)(=O)c1ccc(F)cc1,CS(=O)C,402-46-0,4-fluorobenzenesulfonamide,15.9,[15.9],"[Kutt et al., Eur. J. Org. Chem., 2021, 2021 (9), 1407-1419.]",amine,DMSO
1841,Cc1cc(O)no1,O,0,0,5.92,[5.92],"[Hunt et al.. J. Chem. Inf. Model, 2020, 60 (6), 2989-2997.]",phenol,water
1842,CC(O)(C(F)(F)F)C(F)(F)F,O,0,0,9.6,[9.6],"[Hunt et al.. J. Chem. Inf. Model, 2020, 60 (6), 2989-2997.]",hydroxyl alcohol,water
1843,CC(=O)SCC[NH+](C)C,O,0,0,8.27,[8.27],"[Hunt et al.. J. Chem. Inf. Model, 2020, 60 (6), 2989-2997.]",protonated amine,water
1844,COc1cc2nc(-c3ccc(N4CC[NH+](C)CC4)cc3)nc(NCCN3CCOCC3)c2cc1OC,O,0,0,7.93,[7.93],"[Hunt et al.. J. Chem. Inf. Model, 2020, 60 (6), 2989-2997.]",protonated amine,water
1845,C[C@H]1C[NH+]=C(N)c2sccc2O1,O,0,0,11,[11.0],"[Hunt et al.. J. Chem. Inf. Model, 2020, 60 (6), 2989-2997.]",protonated amine,water
1846,CC[C@H](C)C[NH3+],O,0,0,10.64,[10.64],"[Hunt et al.. J. Chem. Inf. Model, 2020, 60 (6), 2989-2997.]",protonated amine,water
1847,CC[NH+](CC)CCO,O,0,0,9.87,[9.87],"[Hunt et al.. J. Chem. Inf. Model, 2020, 60 (6), 2989-2997.]",protonated amine,water
1848,Cc1ccc(S(=O)(=O)NS(=O)(=O)c2ccc(C)cc2)cc1,CN(C)C=O,3695-00-9,4-methyl-N-(4-methylphenyl)sulfonylbenzenesulfonamide,3.87,[3.87],"[Kutt et al., Eur. J. Org. Chem., 2021, 2021 (9), 1407-1419.]",amine,DMF
1849,CCC(c1ccc([N+](=O)[O-])cc1)[N+](=O)[O-],CC#N,126661-13-0,1-nitro-4-(1-nitropropyl)benzene,23.9,[23.9],"[Eckert et al., J. Comput. Chem., 2009, 30, 799-810.]",C-H acid,acetonitrile
1850,Oc1ccc(Cl)cc1Cl,O,0,0,7.892,[7.892],"[Hunt et al.. J. Chem. Inf. Model, 2020, 60 (6), 2989-2997.]",phenol,water
1851,[NH3+]c1ccc(/C=C/c2ccccc2)cc1,O,0,0,4.18,[4.18],"[Hunt et al.. J. Chem. Inf. Model, 2020, 60 (6), 2989-2997.]",protonated amine,water
1852,O=[N+]([O-])O,CC#N,7697-37-2,nitric acid,8.8,[8.8],"[Eckert et al., J. Comput. Chem., 2009, 30, 799-810.]",inorganic,acetonitrile
1853,CCCC[NH+](CCCC)CCCC,CS(=O)C,-,tributylazanium,8.4,[8.4],"[Tshepelvitsh et al., Eur. J. Org. Chem., 2019, 6735-6748.]",protonated amine,DMSO
1854,O=C(O)[C@@H](Br)c1ccccc1,O,0,0,2.21,[2.21],"[Hunt et al.. J. Chem. Inf. Model, 2020, 60 (6), 2989-2997.]",carboxylic acid,water
1855,C[NH+]1[C@H]2CC[C@@H]1CC(OC(=O)[C@H](CO)c1ccccc1)C2,O,0,0,9.84,[9.84],"[Hunt et al.. J. Chem. Inf. Model, 2020, 60 (6), 2989-2997.]",protonated amine,water
1856,N#CC(c1c(F)c(F)c(F)c(F)c1F)c1c(F)c(F)c2c(F)c(F)c(F)c(F)c2c1F,CC#N,64934-68-5,"2-(1,3,4,5,6,7,8-heptafluoronaphthalen-2-yl)-2-(2,3,4,5,6-pentafluorophenyl)acetonitrile",20.076,"[20.08, 20.08, 20.07, 20.07, 20.08]","[Eckert et al., J. Comput. Chem., 2009, 30, 799-810., Paenurk et al., Chem. Sci., 2017, 8, 6964-6973., Kutt et al., Eur. J. Org. Chem., 2021, 2021 (9), 1407-1419., Kutt et al., Eur. J. Org. Chem., 2021, 2021 (9), 1407-1419., Paenurk et al., Chem. Sci., 2017, 8, 6964-6973.]",C-H acid,acetonitrile
1857,O=P1(O)Oc2c(-c3ccccc3)cc3ccccc3c2-c2c(c(-c3ccccc3)cc3ccccc23)O1,CC#N,695162-86-8,"13-hydroxy-10,16-diphenyl-12,14-dioxa-135-phosphapentacyclo[13.8.0.02,11.03,8.018,23]tricosa-1(15),2(11),3,5,7,9,16,18,20,22-decaene 13-oxide",12.7,[12.7],"[Paenurk et al., Chem. Sci., 2017, 8, 6964-6973.]",phosphoric acid,acetonitrile
1858,C1C[NH+]2CCC1CC2,C1CCOC1,-,1-azoniabicyclo[2.2.2]octane,13.1,[13.1],"[Tshepelvitsh et al., Eur. J. Org. Chem., 2019, 6735-6748.]",protonated amine,THF
1859,CC(C)c1cccc(C(C)C)c1O,O,0,0,11.1,[11.1],"[Hunt et al.. J. Chem. Inf. Model, 2020, 60 (6), 2989-2997.]",phenol,water
1860,CC[NH+](CC)CCCCC#N,O,0,0,10.08,[10.08],"[Hunt et al.. J. Chem. Inf. Model, 2020, 60 (6), 2989-2997.]",protonated amine,water
1861,O=C([O-])COc1ccc(Cl)cc1C[NH+]1CCC(S(=O)(=O)c2ccccc2)CC1,O,0,0,7.8,[7.8],"[Hunt et al.. J. Chem. Inf. Model, 2020, 60 (6), 2989-2997.]",protonated amine,water