,Solute SMILES,Solvent SMILES,Solute CAS,Solute IUPAC,pKa (avg),pKa (all),Source
5182,O=C([O-])c1csc(Cl)n1,O,0,0,3.3,['3.3'],['datawarrior']
5183,O=C([O-])c1csc2ccccc12,O,0,0,4.24,['4.24'],['datawarrior']
5184,O=C([O-])c1cscn1,O,0,0,3.27,['3.27'],['datawarrior']
5185,O=C([O-])c1cssc1=S,O,0,0,2.8,['2.8'],['chembl25']
5186,O=C([O-])c1nccc2ccccc12,O,0,0,4.97,['4.97'],['datawarrior']
5187,O=C([O-])c1nccs1,O,0,0,2.57,['2.57'],['datawarrior']
5188,O=C([O-])c1nsc2ccccc12,O,0,0,2.76,['2.76'],['datawarrior']
5189,O=C([S-])c1ccccc1,O,0,0,2.44,['2.44'],['datawarrior']
5190,O=C(c1cc2cc(OC3CC[NH+](C4CC4)CC3)ccc2[nH]1)N1CCOCC1,O,0,0,7.7,['7.7'],['chembl25']
5191,O=C(c1cc2cc(OC3CC[NH+](C4CC4)CC3)ccc2n1CC(F)(F)F)N1CCOCC1,O,0,0,7.5,['7.5'],['chembl25']
5192,O=C(c1cc2cc(OC3CC[NH+](C4CCC4)CC3)ccc2n1CC(F)(F)F)N1CCOCC1,O,0,0,9.1,['9.1'],['chembl25']
5193,O=C(c1cc2cc(OC3CC[NH+](C4COC4)CC3)ccc2n1CC(F)(F)F)N1CCOCC1,O,0,0,6.4,['6.4'],['chembl25']
5194,O=C(c1cc2cc(OCCC[NH+]3CCCCC3)ccc2[nH]1)N1CCOCC1,O,0,0,10.0,['10.0'],['chembl25']
5195,O=C(c1ccc(C(F)(F)F)cc1)N1CCC(=Cc2ccc(C3=NCCO3)cc2)CC1,O,0,0,4.7,['4.7'],['chembl25']
5196,O=C(c1ccc(Cl)cc1)c1ccc(OC2C[NH+]3CCC2CC3)cc1,O,0,0,9.1,['9.1'],['chembl25']
5197,O=C(c1ccc(Cl)cc1)c1ccc2n1CCC2C(=O)[O-],O,0,0,3.4,['3.4'],['chembl25']
5198,O=C(c1ccc(Cl)cc1)c1ccn[nH]1,O,0,0,11.87,['11.87'],['datawarrior']
5199,O=C(c1ccc(Cl)cc1NS(=O)(=O)c1cccc2nonc12)N1CCCCC1,O,0,0,6.18,['6.18'],['chembl25']
5200,O=C(c1ccc(Cl)cc1NS(=O)(=O)c1cccc2nsnc12)N1CCCCC1,O,0,0,5.47,['5.47'],['chembl25']
5201,O=C(c1ccc(F)cc1)c1ccc2n1CCC2C(=O)[O-],O,0,0,3.51,['3.51'],['chembl25']
5202,O=C(c1ccc2c(c1)cc(C(=O)N1CCOCC1)n2CC(F)(F)F)N1CC[NH+](C2CCC2)CC1,O,0,0,6.8,['6.8'],['chembl25']
5203,O=C(c1ccc2cc(OCCC[NH+]3CCCCC3)ccc2c1)N1CCC(CO)CC1,O,0,0,9.6,['9.6'],['chembl25']
5204,O=C(c1ccc2cc(OCCC[NH+]3CCCCC3)ccc2n1)N1CCC1,O,0,0,9.4,['9.4'],['chembl25']
5205,O=C(c1ccc2ccccc2c1)c1ccc2n1CCC2C(=O)[O-],O,0,0,3.44,['3.44'],['chembl25']
5206,O=C(c1ccc2n1CCC2C(=O)[O-])C1CCC1,O,0,0,3.54,['3.54'],['chembl25']
5207,O=C(c1cccc(Cl)c1)c1ccc2n1CCC2C(=O)[O-],O,0,0,3.44,['3.44'],['chembl25']
5208,O=C(c1cccc(F)c1)c1ccc2n1CCC2C(=O)[O-],O,0,0,3.46,['3.46'],['chembl25']
5209,O=C(c1ccccc1)N(O)c1ccccc1,O,0,0,7.87,['7.87'],['datawarrior']
5210,O=C(c1ccccc1)N1CC[NH2+]CC1,O,0,0,7.79,['7.79'],['datawarrior']
5211,O=C(c1ccccc1)c1ccc(O)[n+]([O-])c1,O,0,0,5.13,['5.13'],['datawarrior']
5212,O=C(c1ccccc1)c1ccc(O)cc1,O,0,0,8.01,['8.01'],['datawarrior']
5213,O=C(c1ccccc1)c1ccc2n1CCC2C(=O)[O-],O,0,0,3.496667,['3.496667'],['chembl25']
5214,O=C(c1ccccc1)c1cccc(O)c1,O,0,0,9.0,['9.0'],['datawarrior']
5215,O=C(c1ccccc1)c1ccccc1O,O,0,0,9.3,['9.3'],['datawarrior']
5216,O=C(c1ccccc1)c1ccn[nH]1,O,0,0,11.97,['11.97'],['datawarrior']
5217,O=C(c1ccccc1C(F)(F)F)N(CC1CCC1)[C@H]1CC[NH2+]C1,O,0,0,9.5,['9.5'],['chembl25']
5218,O=C(c1ccccc1Cl)c1ccc2n1CCC2C(=O)[O-],O,0,0,4.33,['4.33'],['chembl25']
5219,O=C(c1cccs1)N1CCCC1c1ccc(-c2cccc(Cl)c2)nc1,O,0,0,3.6,['3.6'],['chembl25']
5220,O=C(c1cccs1)N1CC[NH+](CCOc2ccc(Cl)cc2)CC1,O,0,0,6.35,['6.35'],['chembl25']
5221,O=C(c1cccs1)N1CC[NH+](CCOc2ccc(Cl)cc2Cl)CC1,O,0,0,5.23,['5.23'],['chembl25']
5222,O=C(c1cnccn1)N1CCCC1c1ccc(-c2cccc(Cl)c2)nc1,O,0,0,3.4,['3.4'],['chembl25']
5223,O=C(c1cncs1)N1CCCC1c1ccc(-c2cccc(Cl)c2)nc1,O,0,0,3.6,['3.6'],['chembl25']
5224,O=C(c1nnc(-c2ccccc2)o1)N1CC(Oc2ccc(C[NH+]3CC4(CCCO4)C3)cc2)C1,O,0,0,8.4,['8.4'],['chembl25']
5225,O=C(c1nnc(-c2ccccc2)o1)N1CC(Oc2ccc(C[NH+]3CC4(CCOC4)C3)cc2)C1,O,0,0,8.6,['8.6'],['chembl25']
5226,O=C(c1nnc(-c2ccccc2)o1)N1CC(Oc2ccc(C[NH+]3CC4(COC4)C3)cc2)C1,O,0,0,8.0,['8.0'],['chembl25']
5227,O=C(c1nnc(-c2ccccc2)o1)N1CCC(Oc2ccc(C[NH+]3CCC(O)C3)cc2)CC1,O,0,0,8.9,['8.9'],['chembl25']
5228,O=C1/C(=C/c2ccccc2)CN(C(=O)c2ccc(OCC[NH+]3CCOCC3)cc2)C/C1=C\c1ccccc1,O,0,0,8.5,['8.5'],['chembl25']
5229,O=C1C(=NS(=O)(=O)c2ccccc2)C(c2ccc(Cl)cc2)C(=O)c2ccccc21,O,0,0,5.0,['5.0'],['chembl25']
5230,O=C1C(=NS(=O)(=O)c2ccccc2)C(c2cccc(Cl)c2)C(=O)c2ccccc21,O,0,0,4.5,['4.5'],['chembl25']
5231,O=C1C(=NS(=O)(=O)c2ccccc2)C(c2ccccc2Cl)C(=O)c2ccccc21,O,0,0,4.9,['4.9'],['chembl25']
5232,O=C1C(=NS(=O)(=O)c2ccccc2)C(c2ccco2)C(=O)c2ccccc21,O,0,0,5.1,['5.1'],['chembl25']
5233,O=C1C(=NS(=O)(=O)c2ccccc2)C(c2ccoc2)C(=O)c2ccccc21,O,0,0,5.0,['5.0'],['chembl25']
5234,O=C1C(=O)c2ccccc2C(=O)C1=C([O-])c1ccccc1,O,0,0,2.17,['2.17'],['datawarrior']
5235,O=C1C(=O)c2ccccc2C([O-])=C1/C=C/c1ccccc1,O,0,0,4.44,['4.44'],['datawarrior']
5236,O=C1C(=O)c2ccccc2C([O-])=C1Cc1ccccc1,O,0,0,4.9,['4.9'],['datawarrior']
5237,O=C1C(=O)c2ccccc2C([O-])=C1c1ccccc1,O,0,0,4.35,['4.35'],['datawarrior']
5238,O=C1C(Cc2ccccc2)=C([O-])c2ccccc21,O,0,0,5.9,['5.9'],['datawarrior']
5239,O=C1C=C([O-])C(C2CCCCC2)CC1,O,0,0,5.5,['5.5'],['datawarrior']
5240,O=C1C=C([O-])C(Cc2ccc(Br)cc2)C1,O,0,0,3.96,['3.96'],['chembl25']
5241,O=C1C=C([O-])C(Cc2ccccc2)C1,O,0,0,4.01,['4.01'],['chembl25']
5242,O=C1C=C([O-])CC1,O,0,0,4.35,['4.35'],"['datawarrior', 'chembl25']"
5243,O=C1C=C([O-])CC2(CCCCC2)C1,O,0,0,5.2,['5.2'],['datawarrior']
5244,O=C1C=C([O-])CCC1,O,0,0,5.26,['5.26'],['datawarrior']
5245,O=C1C=C([O-])CSC1,O,0,0,4.34,['4.34'],['datawarrior']
5246,O=C1C=C([O-])c2ccccc2C1=O,O,0,0,3.19,['3.19'],['datawarrior']
5247,O=C1C=CC(=O)c2c([O-])cccc21,O,0,0,8.7,['8.7'],['datawarrior']
5248,O=C1C=C[NH+]2C[C@@H]3C[C@@H](C[NH+]4CCCC[C@H]34)[C@@H]2C1,O,0,0,9.25,['9.25'],['datawarrior']
5249,O=C1CC(c2ccccc2)CC([O-])=C1Nc1ccccc1Cl,O,0,0,4.6,['4.6'],['chembl25']
5250,O=C1CC(c2ccccc2)CC([O-])=C1Oc1ccccc1Cl,O,0,0,3.7,['3.7'],['chembl25']
5251,O=C1CC(c2ccccc2)CC([O-])=C1Sc1ccccc1Cl,O,0,0,3.0,['3.0'],['chembl25']
5252,O=C1CC(c2ccccc2)NC(=O)N1,O,0,0,11.22,['11.22'],['datawarrior']
5253,O=C1CC2OCC=C3C4CC5[NH+](CCC56c5ccccc5N1C6C24)[C@H]3S(=O)(=O)[O-],O,0,0,3.2,['3.2'],['datawarrior']
5254,O=C1CCC(=O)N1,O,0,0,9.59,['9.59'],['datawarrior']
5255,O=C1CCC(C(=O)[O-])N1,O,0,0,3.25,['3.25'],['datawarrior']
5256,O=C1CCC([O-])=C1Cc1ccc(Br)cc1,O,0,0,4.2,['4.2'],['chembl25']
5257,O=C1CCC([O-])=C1Cc1ccccc1,O,0,0,4.44,['4.44'],['chembl25']
5258,O=C1CCC([O-])=C1O,O,0,0,4.8,['4.8'],['datawarrior']
5259,O=C1CCCC(=O)N1,O,0,0,11.43,['11.43'],['datawarrior']
5260,O=C1CCCC(=O)N1O,O,0,0,7.6,['7.6'],['datawarrior']
5261,O=C1CCCC1=C[O-],O,0,0,5.83,['5.83'],['datawarrior']
5262,O=C1CCCC2CCCC([O-])=C12,O,0,0,11.13,['11.13'],['datawarrior']
5263,O=C1CCCCC1=C[O-],O,0,0,6.35,['6.35'],['datawarrior']
5264,O=C1CCC[C@H]2[C@H]3C[C@@H](CN12)[C@@H]1CCCC[NH+]1C3,O,0,0,9.4,['9.4'],['datawarrior']
5265,O=C1CCC[C@H]2[C@H]3C[C@@H](CN12)[C@H]1CCCC[NH+]1C3,O,0,0,9.2,['9.2'],['datawarrior']
5266,O=C1CCC[NH+](Cc2ccc3c(c2)OCO3)C1,O,0,0,7.6,['7.6'],['chembl25']
5267,O=C1CCCc2nc3c(ccn4ccnc34)cc21,O,0,0,2.0,['2.0'],['chembl25']
5268,O=C1CCON1,O,0,0,6.7,['6.7'],['datawarrior']
5269,O=C1CC[C@@H](C(=O)[O-])N1,O,0,0,3.4,['3.4'],['datawarrior']
5270,O=C1CC[C@H]2N1CC[C@H]1c3ccccc3CC[NH+]12,O,0,0,4.89,['4.89'],['datawarrior']
5271,O=C1CC[NH+](Cc2ccc3c(c2)OCO3)C1,O,0,0,6.1,['6.1'],['chembl25']
5272,O=C1CC[NH+](Cc2ccc3c(c2)OCO3)CC1,O,0,0,7.5,['7.5'],['chembl25']
5273,O=C1CCc2ccccc2N1CCC[NH+]1CCC(c2ccc3[nH]ccc3c2)CC1,O,0,0,9.0,['9.0'],['chembl25']
5274,O=C1CCc2ccccc2N1CCC[NH+]1CCC(n2c(=O)[nH]c3ccccc32)CC1,O,0,0,7.6,['7.6'],['chembl25']
5275,O=C1CN(C(=O)c2ccccc2)C(=S)N1,O,0,0,6.5,['6.5'],['datawarrior']
5276,O=C1CNC(=O)N1,O,0,0,9.12,['9.12'],['datawarrior']
5277,O=C1CS(=O)(=O)c2ccccc21,O,0,0,7.65,['7.65'],['datawarrior']
5278,O=C1CSC(=O)[N-]1,O,0,0,6.68,['6.68'],"['datawarrior', 'chembl25']"
5279,O=C1CSC(=S)[N-]1,O,0,0,6.48,['6.48'],['datawarrior']
5280,O=C1C[C@@H]2OCC=C3C[NH+]4CC[C@@]56c7ccccc7N1[C@H]5C2[C@@]3(S(=O)(=O)[O-])C[C@H]46,O,0,0,7.53,['7.53'],['datawarrior']
5281,O=C1C[C@H]2OCC(S(=O)(=O)[O-])=C3C[NH+]4CC[C@@]56c7ccccc7N1[C@@H]5[C@@H]2[C@@H]3C[C@@H]46,O,0,0,7.54,['7.54'],['datawarrior']
5282,O=C1C[C@H]2OCC=C3C[NH+]4CC[C@@]56c7ccccc7N1[C@@H]5[C@@H]2[C@@H]3C[C@@H]46,O,0,0,8.18,['8.18'],['datawarrior']
5283,O=C1C[NH+]2CCC1CC2,O,0,0,7.27,['7.27'],['datawarrior']
5284,O=C1Cc2c1ccc(O)c2Br,O,0,0,5.75,['5.75'],['datawarrior']
5285,O=C1Cc2cc(O)ccc21,O,0,0,7.24,['7.24'],['datawarrior']
5286,O=C1Cn2c(cc3ccccc32)C(=O)N1,O,0,0,9.3,['9.3'],['chembl25']
5287,O=C1N=C(Cc2ccccc2)C(=O)N1,O,0,0,8.6,['8.6'],['datawarrior']
5288,O=C1NC(=O)C(Cc2ccccc2)N1,O,0,0,9.03,['9.03'],['datawarrior']
5289,O=C1NC(=O)C(N2C(=O)c3cccc4cccc(c34)C2=O)N1,O,0,0,9.5,['9.5'],['chembl25']
5290,O=C1NC(=O)C(c2ccccc2)(c2ccccc2)N1,O,0,0,8.1,['8.1'],['chembl25']
5291,O=C1NC(=O)C2(CCOc3ccc(F)cc32)N1,O,0,0,8.3,['8.3'],['datawarrior']
5292,O=C1NC(=O)C2CCC12,O,0,0,9.63,['9.63'],['datawarrior']
5293,O=C1NC(=O)[C@@H]2CCCC[C@H]12,O,0,0,9.72,['9.72'],['datawarrior']
5294,O=C1NC(=O)[C@@H]2CCC[C@H]12,O,0,0,9.53,['9.53'],['datawarrior']
5295,O=C1NC(=O)[C@@]2(CCOc3ccc(F)cc32)N1,O,0,0,8.183333,['8.183333'],['chembl25']
5296,O=C1NC(=O)c2cc(Cl)ccc21,O,0,0,9.48,['9.48'],['datawarrior']
5297,O=C1NC(=O)c2ccccc21,O,0,0,9.91,['9.91'],['datawarrior']
5298,O=C1NC(=S)NC12CCCCC2,O,0,0,8.79,['8.79'],['datawarrior']
5299,O=C1NC(c2ccccc2)CC([O-])=C1Nc1ccccc1Cl,O,0,0,6.0,['6.0'],['chembl25']
5300,O=C1NC(c2ccccc2)CC([O-])=C1Sc1ccccc1Cl,O,0,0,4.1,['4.1'],['chembl25']
5301,O=C1NCC(c2ccc(F)cc2)C12CC[NH+](C1(c3ccc(F)cc3)CCCCC1)CC2,O,0,0,8.75,['8.75'],['chembl25']
5302,O=C1NCC(c2ccc(F)cc2)C12CC[NH+](C1CCCCC1(O)c1ccccc1)CC2,O,0,0,6.89,['6.89'],['chembl25']
5303,O=C1NCC(c2ccccc2)C12CC[NH+](C1(c3ccccc3)CCCOC1)CC2,O,0,0,7.1,['7.1'],['chembl25']
5304,O=C1NCC(c2ccccc2)C12CC[NH+](C1(c3ccccc3)CCOCC1)CC2,O,0,0,7.71,['7.71'],['chembl25']
5305,O=C1NCC(c2ccccc2)C12CC[NH+](C1CCCCC1(O)c1ccc(F)cc1)CC2,O,0,0,8.54,['8.54'],['chembl25']
5306,O=C1NC[C@@H](c2ccccc2)C12CC[NH+](C1CCCCC1c1ccccc1)CC2,O,0,0,8.85,['8.85'],['chembl25']
5307,O=C1Nc2ccc(Cl)cc2C(c2ccccc2Cl)=NC1O,O,0,0,11.5,['11.5'],['chembl25']
5308,O=C1Nc2ccccc2C1=O,O,0,0,11.9,['11.9'],['datawarrior']
5309,O=C1OC(C(O)CO)C(OCCCCC(CO[N+](=O)[O-])O[N+](=O)[O-])=C1O,O,0,0,7.64,['7.64'],['chembl25']
5310,O=C1OC(C(O)CO)C(OCCCCCCO[N+](=O)[O-])=C1O,O,0,0,7.6,['7.6'],['chembl25']
5311,O=C1OC(C(O)CO)C(OCCCO[N+](=O)[O-])=C1O,O,0,0,7.55,['7.55'],['chembl25']
5312,O=C1OC(C(O)CO)C(OCCCOc2no[n+]([O-])c2-c2ccccc2)=C1O,O,0,0,7.6,['7.6'],['chembl25']
5313,O=C1OC(C(O)CO)C(OCCCOc2no[n+]([O-])c2S(=O)(=O)c2ccccc2)=C1O,O,0,0,7.62,['7.62'],['chembl25']
5314,O=C1OC(C(O)CO)C([O-])=C1OCCCCCCO[N+](=O)[O-],O,0,0,3.56,['3.56'],['chembl25']
5315,O=C1OC(C(O)CO)C([O-])=C1OCCCO[N+](=O)[O-],O,0,0,3.19,['3.19'],['chembl25']
5316,O=C1OC(C(O)CO)C([O-])=C1OCCCOc1no[n+]([O-])c1-c1ccccc1,O,0,0,3.44,['3.44'],['chembl25']
5317,O=C1OC(c2ccccc2)CC([O-])=C1Oc1ccccc1Cl,O,0,0,3.4,['3.4'],['chembl25']
5318,O=C1OC2C3CC4C2C4(C(=O)[O-])C13Br,O,0,0,3.5,['3.5'],['datawarrior']
5319,O=C1[C@@H]2C[C@@H](C[NH+]3CCCC[C@@H]23)[C@H]2CCCCN12,O,0,0,7.7,['7.7'],['datawarrior']
5320,O=C1[C@H]2C[C@H](C[NH+]3CCCC=C23)[C@@H]2CCCCN12,O,0,0,9.7,['9.7'],['datawarrior']
5321,O=C1[C@H]2C[C@H](C[NH+]3CCCC[C@@H]23)C2=CCCCN12,O,0,0,7.7,['7.7'],['datawarrior']
5322,O=C1[N-]C(=O)/C(=C/c2ccccc2)S1,O,0,0,6.14,['6.14'],['chembl25']
5323,O=C1[N-]C(=O)/C(=C\c2ccc(-c3ccc(Cl)c(Cl)c3)o2)S1,O,0,0,7.9,['7.9'],['chembl25']
5324,O=C1[N-]C(=O)C(Cc2ccccc2)S1,O,0,0,6.19,['6.19'],['chembl25']
5325,O=C1[N-]C(=O)[C@@]2(CCOc3ccc(Cl)cc32)O1,O,0,0,5.6,['5.6'],['chembl25']
5326,O=C1c2ccccc2C(=O)N1O,O,0,0,6.13,['6.13'],['datawarrior']
5327,O=C1c2ccccc2CN1C1CC2CCC(C1)[NH+]2Cc1ccccc1,O,0,0,8.71,['8.71'],['datawarrior']
5328,O=CC1c2ccccc2-c2ccccc21,O,0,0,6.8,['6.8'],['datawarrior']
5329,O=CCCCC(=O)[O-],O,0,0,5.02,['5.02'],['datawarrior']
5330,O=CN(O)c1ccccc1,O,0,0,7.92,['7.92'],['chembl25']
5331,O=CN1CC[NH2+]CC1,O,0,0,7.98,['7.98'],['datawarrior']
5332,O=CNO,O,0,0,8.77,['8.77'],['datawarrior']
5333,O=COO,O,0,0,7.1,['7.1'],['datawarrior']
5334,O=C[O-],O,0,0,3.69,['3.69'],['datawarrior']
5335,O=Cc1c(O)cccc1Cl,O,0,0,8.26,['8.26'],['datawarrior']
5336,O=Cc1c2ccccc2c(O)c2ccccc12,O,0,0,6.0,['6.0'],['datawarrior']
5337,O=Cc1cc(-c2ccccc2)nnc1NCC[NH+]1CCOCC1,O,0,0,4.745,['4.745'],['datawarrior']
5338,O=Cc1cc(Br)ccc1O,O,0,0,7.4,['7.4'],['datawarrior']
5339,O=Cc1cc(Cl)ccc1O,O,0,0,7.4,['7.4'],['datawarrior']
5340,O=Cc1ccc(O)c2ncccc12,O,0,0,5.715,['5.715'],['chembl25']
5341,O=Cc1ccc(O)cc1,O,0,0,7.565,['7.565'],"['datawarrior', 'chembl25']"
5342,O=Cc1ccc(O)cc1Cl,O,0,0,6.6,['6.6'],['datawarrior']
5343,O=Cc1cccc(C2C(=O)c3ccccc3C(=O)C2=NC(=O)Cc2ccccc2)c1,O,0,0,11.4,['11.4'],['chembl25']
5344,O=Cc1cccc(C2C(=O)c3ccccc3C(=O)C2=NC(=O)c2ccccc2)c1,O,0,0,10.9,['10.9'],['chembl25']
5345,O=Cc1cccc(C2C(=O)c3ccccc3C(=O)C2=NS(=O)(=O)c2ccccc2)c1,O,0,0,5.0,['5.0'],['chembl25']
5346,O=Cc1cccc(Cl)c1O,O,0,0,6.61,['6.61'],['datawarrior']
5347,O=Cc1cccc(O)c1,O,0,0,8.86,['8.86'],['datawarrior']
5348,O=Cc1ccccc1C(=O)[O-],O,0,0,4.56,['4.56'],['datawarrior']
5349,O=Cc1ccccc1O,O,0,0,8.33,['8.33'],"['datawarrior', 'chembl25']"
5350,O=Cc1cccnc1,O,0,0,3.73,['3.73'],['datawarrior']
5351,O=Cc1cccnc1C(=O)[O-],O,0,0,3.7,['3.7'],['datawarrior']
5352,O=Cc1ccnc2ccccc12,O,0,0,4.25,['4.25'],['datawarrior']
5353,O=Cc1ccncc1,O,0,0,4.63,['4.63'],['datawarrior']
5354,O=Cc1ncccc1O,O,0,0,6.95,['6.95'],['datawarrior']
5355,O=NC(=O)CCc1ccc(CN(CCc2c[nH]c3ccccc23)CC(F)(F)F)cc1,O,0,0,3.2,['3.2'],['chembl25']
5356,O=NC(=O)CCc1ccc(CN(CCc2c[nH]c3ccccc23)CCC(F)(F)F)cc1,O,0,0,4.75,['4.75'],['chembl25']
5357,O=NC(=O)CCc1ccc(C[NH+](CCO)CCc2c[nH]c3ccccc23)cc1,O,0,0,7.5,['7.5'],['chembl25']
5358,O=NC(=O)CCc1ccc(C[NH+]2CCCC(c3c(-c4ccccc4)[nH]c4ccccc34)C2)c(F)c1,O,0,0,7.4,['7.4'],['chembl25']
5359,O=NC(=O)CCc1ccc(C[NH+]2CCCC(c3c(-c4ccccc4)[nH]c4ccccc34)C2)cc1,O,0,0,7.7,['7.7'],['chembl25']
5360,O=NC(=O)CCc1ccc(C[NH+]2CCCC(c3c[nH]c4ccccc34)C2)cc1,O,0,0,7.3,['7.3'],['chembl25']
5361,O=NC(=O)CCc1ccc(C[NH2+]CCc2c[nH]c3ccccc23)cc1,O,0,0,7.65,['7.65'],['chembl25']
5362,O=NC(c1ccc(Sc2cc(F)cc(C3CCOCC3)c2)cc1)C(F)(F)F,O,0,0,7.68,['7.68'],['chembl25']
5363,O=NC1CCC(N=O)C1=O,O,0,0,7.95,['7.95'],['datawarrior']
5364,O=NCC(=O)CCl,O,0,0,7.9,['7.9'],['datawarrior']
5365,O=NCC(=O)CN=O,O,0,0,7.65,['7.65'],['datawarrior']
5366,O=NCC(=O)NCC[NH+]1CCOCC1,O,0,0,6.19,['6.19'],['datawarrior']
5367,O=NCC(=O)c1ccc(OCC2CC[NH+](Cc3ccccc3)CC2)nc1,O,0,0,7.8,['7.8'],['chembl25']
5368,O=NCC(F)(F)F,O,0,0,8.9,['8.9'],['chembl25']
5369,O=NCc1ccc(O)cc1,O,0,0,10.375,['10.375'],['datawarrior']
5370,O=NCc1ccc(OCC2CC[NH+](Cc3ccccc3)CC2)nc1,O,0,0,11.2,['11.2'],['chembl25']
5371,O=NCc1cccc[n+]1COCCOC[n+]1ccccc1CN=O,O,0,0,8.02,['8.02'],['chembl25']
5372,O=NCc1ccccc1O,O,0,0,9.21,['9.21'],['datawarrior']
5373,O=NCc1ccccn1,O,0,0,3.4,['3.4'],['datawarrior']
5374,O=NCc1cccnc1,O,0,0,3.94,['3.94'],['datawarrior']
5375,O=NCc1ccnc2ccccc12,O,0,0,4.55,['4.55'],['datawarrior']
5376,O=NCc1ccncc1,O,0,0,4.58,['4.58'],['datawarrior']
5377,O=NCc1cnc(OCC2CC[NH+](Cc3ccccc3)CC2)nc1,O,0,0,10.7,['10.7'],['chembl25']
5378,O=Nc1c(O)ccc2ccccc12,O,0,0,7.77,['7.77'],['datawarrior']
5379,O=Nc1c(O)ccc2ncsc12,O,0,0,5.43,['5.43'],['datawarrior']
5380,O=Nc1ccc2ccccc2c1O,O,0,0,7.52,['7.52'],['datawarrior']
5381,O=P([O-])([O-])CCc1ccccc1,O,0,0,2.34,['2.34'],['chembl25']
5382,O=P1([O-])NCCCO1,O,0,0,4.1,['4.1'],['chembl25']
5383,O=S(=O)(Cc1ccccc1)c1ccccc1[O-],O,0,0,7.12,['7.12'],['chembl25']
5384,O=S(=O)(Cc1ccccc1)c1cn[nH]n1,O,0,0,5.15,['5.15'],"['datawarrior', 'chembl25']"
5385,O=S(=O)(Cc1ccccc1)c1ncc[nH]1,O,0,0,8.67,['8.67'],"['datawarrior', 'chembl25']"
5386,O=S(=O)(Cc1ccccc1)c1ncn[nH]1,O,0,0,6.23,['6.23'],"['datawarrior', 'chembl25']"
5387,O=S(=O)(NBr)c1ccccc1,O,0,0,4.95,['4.95'],['datawarrior']
5388,O=S(=O)(NCc1ccccc1)c1ccc(Br)cc1,O,0,0,10.71,['10.71'],['datawarrior']
5389,O=S(=O)(N[C@H](CO)C(C(F)(F)F)C(F)(F)F)c1ccc(Cl)s1,O,0,0,8.3,['8.3'],['chembl25']
5390,O=S(=O)(N[C@H](CO)C(CC(F)(F)F)CC(F)(F)F)c1ccc(Cl)s1,O,0,0,8.9,['8.9'],['chembl25']
5391,O=S(=O)(Nc1cc(Cl)c(Cl)cc1Cn1ccnn1)c1ccc(Cl)s1,O,0,0,5.3,['5.3'],['chembl25']
5392,O=S(=O)(Nc1cc(Cl)ccc1Cn1ccnn1)c1ccc(Cl)c(Cl)c1,O,0,0,5.9,['5.9'],['chembl25']
5393,O=S(=O)(Nc1ccc(Br)cc1)c1ccccc1,O,0,0,7.78,['7.78'],['datawarrior']
5394,O=S(=O)(Nc1ccc(C(F)(F)F)nc1)c1ccccc1C(F)(F)F,O,0,0,5.1,['5.1'],['chembl25']
5395,O=S(=O)(Nc1ccc(Cl)cc1)C(F)(F)F,O,0,0,3.9,['3.9'],['datawarrior']
5396,O=S(=O)(Nc1ccc(Cl)cc1)c1ccc(Br)cc1,O,0,0,8.24,['8.24'],['chembl25']
5397,O=S(=O)(Nc1ccc(Cl)cc1)c1ccc(Cl)cc1,O,0,0,8.3,['8.3'],['chembl25']
5398,O=S(=O)(Nc1ccc(Cl)cc1)c1ccc(F)cc1,O,0,0,8.61,['8.61'],['chembl25']
5399,O=S(=O)(Nc1ccc(Cl)cc1)c1ccccc1,O,0,0,8.33,['8.33'],"['datawarrior', 'chembl25']"
5400,O=S(=O)(Nc1ccc(F)cc1)c1ccc(Br)cc1,O,0,0,8.38,['8.38'],['chembl25']
5401,O=S(=O)(Nc1ccc(F)cc1)c1ccc(Cl)cc1,O,0,0,8.41,['8.41'],['chembl25']
5402,O=S(=O)(Nc1ccc(F)cc1)c1ccc(F)cc1,O,0,0,8.73,['8.73'],['chembl25']
5403,O=S(=O)(Nc1ccc(F)cc1)c1ccccc1,O,0,0,8.85,['8.85'],['chembl25']
5404,O=S(=O)(Nc1cccc(C(F)(F)F)c1)C(F)(F)F,O,0,0,3.5,['3.5'],['datawarrior']
5405,O=S(=O)(Nc1cccc(C(F)(F)F)c1)c1ccccc1,O,0,0,7.63,['7.63'],['datawarrior']
5406,O=S(=O)(Nc1cccc(F)c1)c1ccccc1,O,0,0,7.54,['7.54'],['datawarrior']
5407,O=S(=O)(Nc1ccccc1)C(F)(F)F,O,0,0,4.85,['4.85'],['datawarrior']
5408,O=S(=O)(Nc1ccccc1)c1ccc(Br)cc1,O,0,0,8.5,['8.5'],['chembl25']
5409,O=S(=O)(Nc1ccccc1)c1ccc(Cl)cc1,O,0,0,8.225,['8.225'],"['datawarrior', 'chembl25']"
5410,O=S(=O)(Nc1ccccc1)c1ccc(F)cc1,O,0,0,8.9,['8.9'],['chembl25']
5411,O=S(=O)(Nc1ccccc1)c1cccc(Br)c1,O,0,0,8.25,['8.25'],['chembl25']
5412,O=S(=O)(Nc1ccccc1)c1ccccc1,O,0,0,8.66,['8.66'],"['datawarrior', 'chembl25']"
5413,O=S(=O)(Nc1ccccn1)c1ccccc1,O,0,0,8.2,['8.2'],['datawarrior']
5414,O=S(=O)(Nc1cncc(Br)c1)c1ccccc1C(F)(F)F,O,0,0,5.3,['5.3'],['chembl25']
5415,O=S(=O)(Nc1nccs1)c1ccccc1,O,0,0,5.73,['5.73'],['datawarrior']
5416,O=S(=O)([N-]c1ncccn1)c1ccccc1,O,0,0,5.91,['5.91'],['datawarrior']
5417,O=S(=O)([O-])CC(O)C[NH+]1CCOCC1,O,0,0,6.91,['6.91'],['datawarrior']
5418,O=S(=O)([O-])CCC[NH+]1CCOCC1,O,0,0,7.17,['7.17'],['datawarrior']
5419,O=S(=O)([O-])CC[NH+]1CCOCC1,O,0,0,6.16,['6.16'],['datawarrior']
5420,O=S(=O)([O-])CCc1ccc(Nc2c3ccccc3nc3ccccc23)cc1,O,0,0,7.77,['7.77'],['chembl25']
5421,O=S(=O)([O-])Cc1ccc(Nc2c3ccccc3nc3ccccc23)cc1,O,0,0,7.64,['7.64'],['chembl25']
5422,O=S(=O)([O-])c1ccc(Nc2c3ccccc3nc3ccccc23)cc1,O,0,0,6.87,['6.87'],['chembl25']
5423,O=S(=O)(c1ccc(F)cc1)C1(F)CC[NH+](CCc2ccc(F)cc2F)CC1,O,0,0,6.3,['6.3'],['chembl25']
5424,O=S(=O)(c1ccc(F)cc1)C1CC[NH+](CCc2ccc(F)cc2F)CC1,O,0,0,7.2,['7.2'],['chembl25']
5425,O=S(=O)(c1cccc(F)c1)c1ccc2c3c(oc2c1)C1(CCCOC1)[NH2+]CC3,O,0,0,7.5,['7.5'],['chembl25']
5426,O=S(=O)(c1cccc(F)c1)c1ccc2c3c(oc2c1)C1(CCOC1)[NH2+]CC3,O,0,0,7.5,['7.5'],['chembl25']
5427,O=S(=O)(c1cccc(F)c1)c1ccc2c3c(oc2c1)C1(CCOCC1)[NH2+]CC3,O,0,0,7.4,['7.4'],['chembl25']
5428,O=S(=O)(c1ccccc1)C1CC[NH+](CCc2ccc(F)cc2F)CC1,O,0,0,7.3,['7.3'],['chembl25']
5429,O=S(Cc1ccccc1)c1ccccc1[O-],O,0,0,7.7,['7.7'],['chembl25']
5430,O=S(Cc1ccccc1)c1cn[nH]n1,O,0,0,6.09,['6.09'],"['datawarrior', 'chembl25']"
5431,O=S(Cc1ccccc1)c1ncn[nH]1,O,0,0,7.38,['7.38'],"['datawarrior', 'chembl25']"
5432,O=S([O-])CCCCc1ccccc1,O,0,0,2.23,['2.23'],['datawarrior']
5433,O=S([O-])CCCc1ccccc1,O,0,0,2.05,['2.05'],['datawarrior']
5434,O=S([O-])CCc1ccccc1,O,0,0,2.1,['2.1'],"['datawarrior', 'chembl25']"
5435,O=S1(=O)NCN(CC(F)(F)F)c2ccc(Cl)cc21,O,0,0,9.01,['9.01'],['chembl25']
5436,O=S1(=O)NCN(CCF)c2ccc(Cl)cc21,O,0,0,9.35,['9.35'],['chembl25']
5437,O=S1(=O)Nc2cccc3cccc1c23,O,0,0,6.2,['6.2'],['datawarrior']
5438,O=S1N=C(CCc2ccccc2)NO1,O,0,0,5.23,['5.23'],['chembl25']
5439,O=c1[nH][nH]c(-c2ccccc2)c1Cc1ccccc1,O,0,0,7.7,['7.7'],['datawarrior']
5440,O=c1[nH]c(-c2cc(-c3ccon3)n(Cc3ccccc3F)n2)ncc1F,O,0,0,5.75,['5.75'],['chembl25']
5441,O=c1[nH]c(=O)c2ncn([C@H]3O[C@@H](CO)[C@H](O)[C@@H]3O)c2[nH]1,O,0,0,5.72,['5.72'],['datawarrior']
5442,O=c1[nH]c(=O)n(-c2ccccc2)[nH]1,O,0,0,4.9,['4.9'],['datawarrior']
5443,O=c1[nH]c(=O)n([C@@H]2O[C@H](CO)C(O)[C@H](F)C2O)cc1F,O,0,0,7.5,['7.5'],['chembl25']
5444,O=c1[nH]c(=O)n([C@@H]2O[C@H](CO)[C@@H](O)[C@@H]2O)cc1Br,O,0,0,8.0,['8.0'],['chembl25']
5445,O=c1[nH]c(=O)n([C@@H]2O[C@H](CO)[C@@H](O)[C@@H]2O)cc1I,O,0,0,8.0,['8.0'],['chembl25']
5446,O=c1[nH]c(=O)n([C@H]2C[C@H](O)[C@@H](CO)O2)cc1F,O,0,0,7.7,['7.7'],['chembl25']
5447,O=c1[nH]c(=O)n([C@H]2C[C@H](O)[C@@H](CO)O2)cc1I,O,0,0,8.2,['8.2'],['chembl25']
5448,O=c1[nH]c(CCc2ccccc2)no1,O,0,0,5.73,['5.73'],['chembl25']
5449,O=c1[nH]c(CCc2ccccc2)ns1,O,0,0,6.5,['6.5'],['chembl25']