,Solute SMILES,Solvent SMILES,Solute CAS,Solute IUPAC,pKa (avg),pKa (all),Source
2713,COc1cccc(CCC(=O)[O-])c1,O,0,0,4.65,['4.65'],['datawarrior']
2714,COc1cccc(C[NH3+])c1OC,O,0,0,9.41,['9.41'],['datawarrior']
2715,COc1cccc(N)c1,O,0,0,4.23,['4.23'],['datawarrior']
2716,COc1cccc(N2CC[NH+](CCCCNC(=O)c3ccc4nonc4c3)CC2)c1,O,0,0,7.44,['7.44'],['chembl25']
2717,COc1cccc(NS(=O)(=O)c2ccccc2)c1,O,0,0,7.95,['7.95'],['datawarrior']
2718,COc1cccc(Nc2c3ccccc3nc3ccccc23)c1,O,0,0,7.21,['7.21'],['chembl25']
2719,COc1cccc(Nc2cc(C(C)C)c(C(=O)NCC3CCOCC3)cn2)c1,O,0,0,6.02,['6.02'],['chembl25']
2720,COc1cccc(O)c1,O,0,0,9.51,['9.51'],['datawarrior']
2721,COc1cccc(O)c1O,O,0,0,9.28,['9.28'],['datawarrior']
2722,COc1cccc(OC)c1O,O,0,0,10.09,['10.09'],['datawarrior']
2723,COc1cccc(S(=O)(=O)NC(=O)c2cc(-c3ccc(C#CCO)s3)c(Cl)cc2OC)c1,O,0,0,3.8,['3.8'],['chembl25']
2724,COc1cccc(S(=O)(=O)NC(=O)c2cc(-c3ccc(C#CCO)s3)c(OC)cc2OC)c1,O,0,0,4.7,['4.7'],['chembl25']
2725,COc1cccc(S(N)(=O)=O)c1,O,0,0,9.39,['9.39'],['datawarrior']
2726,COc1cccc([C@@]2(O)CCCC[C@@H]2C[NH+](C)C)c1,O,0,0,9.85,['9.85'],['chembl25']
2727,COc1cccc([O-])c(=O)c1,O,0,0,7.24,['7.24'],['datawarrior']
2728,COc1cccc([S-])c1,O,0,0,6.39,['6.39'],['datawarrior']
2729,COc1cccc2c1-c1c(O)cccc1-2,O,0,0,9.15,['9.15'],['datawarrior']
2730,COc1cccc2c1CN(C1CC3CCC(C1)[NH+]3Cc1ccccc1)C2=O,O,0,0,8.68,['8.68'],['datawarrior']
2731,COc1cccc2c1NC(=[NH+]CC(F)F)NC2C,O,0,0,10.2,['10.2'],['chembl25']
2732,COc1cccc2c1[C@H](Oc1cc(C(=O)N(C)C)cn3c(C)c(C)nc13)[C@@H](O)C2,O,0,0,6.27,['6.27'],['chembl25']
2733,COc1cccc2c1c(NS(=O)(=O)c1ccc(C)c(F)c1)nn2Cc1cccc(CNC(=O)C(C)(C)O)c1,O,0,0,7.26,['7.26'],['chembl25']
2734,COc1cccc2c1c(NS(=O)(=O)c1ccc(Cl)c(Cl)c1)nn2Cc1cccc(CNC(=O)C(C)(C)O)c1,O,0,0,6.76,['6.76'],['chembl25']
2735,COc1cccc2c1c(NS(=O)(=O)c1ccc(Cl)s1)nn2Cc1cccc(CNC(=O)C(C)(C)O)c1,O,0,0,6.54,['6.54'],['chembl25']
2736,COc1cccc2c1c(NS(=O)(=O)c1ccc(Cl)s1)nn2Cc1cccc(CNC(C)=O)c1,O,0,0,6.6,['6.6'],['chembl25']
2737,COc1cccc2c1c(NS(=O)(=O)c1cccc(Cl)c1)nn2Cc1cccc(CNC(=O)C(C)(C)O)c1,O,0,0,7.06,['7.06'],['chembl25']
2738,COc1cccc2c1c(NS(=O)(=O)c1cccc(Cl)c1Cl)nn2Cc1cccc(CNC(=O)C(C)(C)O)c1,O,0,0,6.82,['6.82'],['chembl25']
2739,COc1cccc2c1nc(C)c1ccn(-c3ccccc3C)c12,O,0,0,7.4,['7.4'],['chembl25']
2740,COc1cccc2c3c(c(C)[nH+]c12)CCN3c1ccccc1C,O,0,0,9.5,['9.5'],['chembl25']
2741,COc1cccc2ccc(C)nc12,O,0,0,5.69,['5.69'],['datawarrior']
2742,COc1cccc2cccnc12,O,0,0,4.88,['4.88'],['datawarrior']
2743,COc1ccccc(=O)c1[O-],O,0,0,8.0,['8.0'],['datawarrior']
2744,COc1ccccc1-c1ccccc1O,O,0,0,10.4,['10.4'],['datawarrior']
2745,COc1ccccc1-c1cn[nH]n1,O,0,0,8.99,['8.99'],['chembl25']
2746,COc1ccccc1-c1nn[n-]n1,O,0,0,4.8,['4.8'],['datawarrior']
2747,COc1ccccc1/C=C/C(=O)[O-],O,0,0,4.57,['4.57'],['datawarrior']
2748,COc1ccccc1/C=C\C(=O)[O-],O,0,0,4.27,['4.27'],['datawarrior']
2749,COc1ccccc1/[NH+]=C/N(C)C,O,0,0,8.11,['8.11'],['datawarrior']
2750,COc1ccccc1C(=N)c1ccccc1,O,0,0,7.29,['7.29'],['datawarrior']
2751,COc1ccccc1C(=O)NO,O,0,0,8.9,['8.9'],['datawarrior']
2752,COc1ccccc1C(=O)N[C@@H]1CCC[C@@H]2CC[NH+](C)C[C@@H]21,O,0,0,9.11,['9.11'],['chembl25']
2753,COc1ccccc1C(=O)N[C@@H]1CCC[C@@H]2CC[NH+](C)C[C@H]21,O,0,0,8.81,['8.81'],['chembl25']
2754,COc1ccccc1C(=O)N[C@H]1C[C@@H]2CC[C@H](C1)[NH+]2Cc1ccccc1,O,0,0,8.88,['8.88'],['datawarrior']
2755,COc1ccccc1C(=O)[O-],O,0,0,4.05,['4.05'],['datawarrior']
2756,COc1ccccc1CCC(=O)[O-],O,0,0,4.8,['4.8'],['datawarrior']
2757,COc1ccccc1N,O,0,0,4.51,['4.51'],['datawarrior']
2758,COc1ccccc1N1CC[NH+](CCCCNC(=O)c2ccc3nonc3c2)CC1,O,0,0,7.78,['7.78'],['chembl25']
2759,COc1ccccc1N1CC[NH+](CCCNC(=O)c2ccc3nonc3c2)CC1,O,0,0,7.43,['7.43'],['chembl25']
2760,COc1ccccc1N1CC[NH+](CCCNc2cc(=O)n(C)c(=O)n2C)CC1,O,0,0,7.1,['7.1'],['chembl25']
2761,COc1ccccc1N1CC[NH+](CCCn2c(-c3ccccc3)cn3c4c(=O)n(C)c(=O)n(C)c4nc23)CC1,O,0,0,8.44,['8.44'],['chembl25']
2762,COc1ccccc1N1CC[NH+](CCCn2c(C)cn3c4c(=O)n(C)c(=O)n(C)c4nc23)CC1,O,0,0,7.61,['7.61'],['chembl25']
2763,COc1ccccc1N1CC[NH+](CCCn2ccn3c4c(=O)n(C)c(=O)n(C)c4nc23)CC1,O,0,0,8.19,['8.19'],['chembl25']
2764,COc1ccccc1NC(=O)C1=C(O)C(=O)N(C)C1,O,0,0,6.08,['6.08'],['chembl25']
2765,COc1ccccc1Nc1c2ccccc2nc2ccccc12,O,0,0,7.74,['7.74'],['chembl25']
2766,COc1ccccc1O,O,0,0,9.8,['9.8'],"['datawarrior', 'chembl25']"
2767,COc1ccccc1OCC(O)CN1CC[NH+](CC(=O)Nc2c(C)cccc2C)CC1,O,0,0,9.59,['9.59'],['chembl25']
2768,COc1ccccc1OCC[NH2+]CC(O)COc1cccc2[nH]c3ccccc3c12,O,0,0,8.635,['8.635'],['chembl25']
2769,COc1ccccc1Oc1c(NS(=O)(=O)c2ccc(C(C)(C)C)cc2)nc(-c2ncccn2)nc1OCCO,O,0,0,8.36,['8.36'],['chembl25']
2770,COc1ccccn1,O,0,0,3.2,['3.2'],"['datawarrior', 'chembl25']"
2771,COc1cccnc1,O,0,0,4.89,['4.89'],['datawarrior']
2772,COc1ccnc2c1ccc1c(OC)ccnc12,O,0,0,6.45,['6.45'],['datawarrior']
2773,COc1ccnc2ccccc12,O,0,0,6.45,['6.45'],['datawarrior']
2774,COc1ccncc1,O,0,0,6.65,['6.65'],['datawarrior']
2775,COc1ccncn1,O,0,0,2.5,['2.5'],['datawarrior']
2776,COc1ccnnc1,O,0,0,3.7,['3.7'],['datawarrior']
2777,COc1cnc(C(=O)Nc2ccc(F)c([C@@]3(C)[NH+]=C(N)CO[C@@H]3F)c2)cn1,O,0,0,7.8,['7.8'],['chembl25']
2778,COc1cnc(C(=O)Nc2ccc(F)c([C@@]3(C)[NH+]=C(N)CO[C@H]3F)c2)cn1,O,0,0,7.6,['7.6'],['chembl25']
2779,COc1cnc(C(=O)Nc2ccc(F)c([C@@]3(C4CC4)[NH+]=C(N)CO[C@@H]3F)c2)cn1,O,0,0,7.8,['7.8'],['chembl25']
2780,COc1cnc(C(=O)Nc2ccc(F)c([C@]3(C)COCC(N)=[NH+]3)c2)cn1,O,0,0,9.0,['9.0'],['chembl25']
2781,COc1cnc(N)s1,O,0,0,4.98,['4.98'],['datawarrior']
2782,COc1cnccc1C=O,O,0,0,4.45,['4.45'],['datawarrior']
2783,COc1cnnc2ccccc12,O,0,0,3.21,['3.21'],['datawarrior']
2784,COc1csc(C(=O)[O-])c1,O,0,0,3.41,['3.41'],['datawarrior']
2785,COc1nc(-n2[nH]c(C)cc2=O)nc(C)c1C,O,0,0,7.64,['7.64'],['datawarrior']
2786,COc1nc(C)c(Nc2nc(Cl)cn([C@H](C)C3CC3)c2=O)cc1C,O,0,0,3.6,['3.6'],['chembl25']
2787,COc1nc(C)cc(=O)[nH]1,O,0,0,8.4,['8.4'],['datawarrior']
2788,COc1nc(Cc2ccccc2)nc2c1CC[NH2+]CC2,O,0,0,8.9,['8.9'],['chembl25']
2789,COc1nc(N)c2[nH]cnc2n1,O,0,0,10.0,['10.0'],['datawarrior']
2790,COc1nc(N)c2ncn([C@H]3O[C@@H](CO)[C@H](O)[C@@H]3O)c2n1,O,0,0,3.2,['3.2'],['datawarrior']
2791,COc1nc2ccccc2c2ccccc12,O,0,0,2.38,['2.38'],['datawarrior']
2792,COc1nc2ncncc2[nH]1,O,0,0,5.435,['5.435'],['datawarrior']
2793,COc1nccc2ccccc12,O,0,0,3.05,['3.05'],['datawarrior']
2794,COc1ncnc2ccccc12,O,0,0,3.13,['3.13'],['datawarrior']
2795,COc1ncnc2nc[nH]c12,O,0,0,9.16,['9.16'],['datawarrior']
2796,COc1noc2c1CC[NH2+]C2,O,0,0,7.1,['7.1'],['chembl25']
2797,COc1noc2c1C[NH+](C)CC2,O,0,0,6.6,['6.6'],['chembl25']
2798,COc1noc2c1C[NH+](Cc1ccccc1)CC2,O,0,0,6.0,['6.0'],['chembl25']
2799,COc1noc2c1C[NH2+]CC2,O,0,0,7.6,['7.6'],['chembl25']
2800,CP(C)(=O)[O-],O,0,0,3.08,['3.08'],['datawarrior']
2801,CS(=N)(=O)c1ccc(Cl)cc1,O,0,0,2.3,['2.3'],['chembl25']
2802,CS(=N)(=O)c1ccccc1,O,0,0,2.7,['2.7'],['chembl25']
2803,CS(=O)(=O)N(Cc1ccccc1-c1ccccc1)[C@H]1CC[NH2+]C1,O,0,0,8.9,['8.9'],['chembl25']
2804,CS(=O)(=O)NC(=O)CCCC[P+](c1ccccc1)(c1ccccc1)c1ccccc1,O,0,0,5.25,['5.25'],['chembl25']
2805,CS(=O)(=O)NC(=O)CCc1ccccc1,O,0,0,4.94,['4.94'],['chembl25']
2806,CS(=O)(=O)NC(=O)NCc1ccccc1,O,0,0,5.04,['5.04'],['chembl25']
2807,CS(=O)(=O)NC(=O)Nc1ccc(C(F)(F)F)cc1,O,0,0,4.2,['4.2'],['chembl25']
2808,CS(=O)(=O)NC(=O)c1ccc(C(F)(F)F)cc1,O,0,0,3.2,['3.2'],['chembl25']
2809,CS(=O)(=O)NC(N)=O,O,0,0,5.1,['5.1'],['datawarrior']
2810,CS(=O)(=O)Nc1ccc(C(F)(F)F)cc1,O,0,0,8.0,['8.0'],['chembl25']
2811,CS(=O)(=O)Nn1c(=O)[nH]c2cc(Cl)ccc2c1=O,O,0,0,6.9,['6.9'],['chembl25']
2812,CS(=O)(=O)OCCC[NH2+]CCCOS(C)(=O)=O,O,0,0,8.77,['8.77'],['chembl25']
2813,CS(=O)(=O)c1ccc(-c2c[nH+]c(Br)n2-c2ccc(F)c(F)c2)cc1,O,0,0,4.05,['4.05'],['chembl25']
2814,CS(=O)(=O)c1ccc(COc2cccc(NC(=O)C3CCN(c4cc[nH+]cc4)CC3)c2)cc1,O,0,0,9.1,['9.1'],['chembl25']
2815,CS(=O)(=O)c1ccc(NS(=O)(=O)C(F)(F)F)cc1,O,0,0,2.84,['2.84'],['datawarrior']
2816,CS(=O)(=O)c1ccc(Nc2c3ccccc3nc3ccccc23)cc1,O,0,0,5.81,['5.81'],['chembl25']
2817,CS(=O)(=O)c1ccc(S(=O)(=O)NCc2ccccc2)cc1,O,0,0,10.25,['10.25'],['datawarrior']
2818,CS(=O)(=O)c1ccc([C@@H](CC2CCCC2)C(=O)Nc2cnc([C@H](O)CO)cn2)cc1Cl,O,0,0,11.42,['11.42'],['chembl25']
2819,CS(=O)(=O)c1ccc([O-])cc1,O,0,0,7.83,['7.83'],['datawarrior']
2820,CS(=O)CC(=O)CN=O,O,0,0,7.74,['7.74'],['chembl25']
2821,CS(=O)Cc1ccccn1,O,0,0,3.1,['3.1'],['datawarrior']
2822,CS(=O)[O-],O,0,0,2.35,['2.35'],['datawarrior']
2823,CS(=O)c1ccc([O-])cc1,O,0,0,8.28,['8.28'],['datawarrior']
2824,CS(=O)c1cccc(O)c1,O,0,0,8.75,['8.75'],['datawarrior']
2825,CSC(=N)c1ccccc1,O,0,0,5.84,['5.84'],['datawarrior']
2826,CSC(=O)C1c2ccccc2-c2ccccc21,O,0,0,10.51,['10.51'],['datawarrior']
2827,CSC(=S)N(C)CC(=O)[O-],O,0,0,2.98,['2.98'],['datawarrior']
2828,CSC(C)=N,O,0,0,6.71,['6.71'],['datawarrior']
2829,CSC(C)C(=O)[O-],O,0,0,3.76,['3.76'],['datawarrior']
2830,CSC(N)=[NH+]c1ccccc1,O,0,0,7.14,['7.14'],['datawarrior']
2831,CSC(N)=[NH2+],O,0,0,9.83,['9.83'],"['datawarrior', 'chembl25']"
2832,CSC1N=CC[NH2+]1,O,0,0,5.95,['5.95'],['chembl25']
2833,CSCC(=O)CN=O,O,0,0,8.16,['8.16'],['chembl25']
2834,CSCC(=O)[O-],O,0,0,3.67,['3.67'],['datawarrior']
2835,CSCC[NH3+],O,0,0,9.41,['9.41'],['datawarrior']
2836,CSCc1cccc(CSC)n1,O,0,0,4.19,['4.19'],['datawarrior']
2837,CSCc1ccccn1,O,0,0,5.4,['5.4'],['datawarrior']
2838,CSS/C(CCO)=C(/C)N(C=O)Cc1cnc(C)nc1N,O,0,0,5.59,['5.59'],['datawarrior']
2839,CS[C@H]1CCC[C@@H]1[NH+](C)C,O,0,0,8.85,['8.85'],['datawarrior']
2840,CSc1cc(C)ncn1,O,0,0,3.25,['3.25'],['datawarrior']
2841,CSc1cc2ccccc2cn1,O,0,0,3.41,['3.41'],['datawarrior']
2842,CSc1ccc(C(=O)[O-])cc1,O,0,0,4.23,['4.23'],['datawarrior']
2843,CSc1ccc(N)c(Cl)c1,O,0,0,2.56,['2.56'],['datawarrior']
2844,CSc1ccc(N)c(I)c1,O,0,0,2.45,['2.45'],['datawarrior']
2845,CSc1ccc(N)cc1,O,0,0,4.4,['4.4'],['datawarrior']
2846,CSc1ccc(N)cc1Cl,O,0,0,3.38,['3.38'],['datawarrior']
2847,CSc1ccc(N)cc1I,O,0,0,3.44,['3.44'],['datawarrior']
2848,CSc1ccc(O)cc1,O,0,0,9.5,['9.5'],['datawarrior']
2849,CSc1ccc2c(c1)N(CCC1CCCC[NH+]1C)c1ccccc1S2,O,0,0,9.35,['9.35'],['chembl25']
2850,CSc1ccc2ccccc2n1,O,0,0,3.71,['3.71'],['datawarrior']
2851,CSc1ccc2ncccc2c1,O,0,0,4.75,['4.75'],['datawarrior']
2852,CSc1cccc(N)c1,O,0,0,4.05,['4.05'],['datawarrior']
2853,CSc1cccc(O)c1,O,0,0,9.47,['9.47'],['datawarrior']
2854,CSc1cccc2ncccc12,O,0,0,4.5,['4.5'],['datawarrior']
2855,CSc1ccccc1C(=O)[O-],O,0,0,3.89,['3.89'],['datawarrior']
2856,CSc1ccccn1,O,0,0,3.62,['3.62'],['datawarrior']
2857,CSc1cccnc1,O,0,0,4.45,['4.45'],['datawarrior']
2858,CSc1ccnc2ccccc12,O,0,0,5.81,['5.81'],['datawarrior']
2859,CSc1ccncc1,O,0,0,5.97,['5.97'],['datawarrior']
2860,CSc1cnc2ccccc2c1,O,0,0,3.88,['3.88'],['datawarrior']
2861,CSc1nc(N)c2c(ncn2[C@H]2O[C@H](CO)[C@@H](O)[C@H]2O)n1,O,0,0,3.1,['3.1'],['datawarrior']
2862,CSc1nc2ncncc2[nH]1,O,0,0,7.67,['7.67'],['datawarrior']
2863,CSc1nccc2ccccc12,O,0,0,3.93,['3.93'],['datawarrior']
2864,CSc1nccn1C,O,0,0,5.95,['5.95'],['chembl25']
2865,CSc1ncnc2[nH]ncc12,O,0,0,9.65,['9.65'],['datawarrior']
2866,C[As](C)(=O)[O-],O,0,0,6.2,['6.2'],['datawarrior']
2867,C[C@@H](C(=O)NS(C)(=O)=O)c1ccc(OS(=O)(=O)C(F)(F)F)cc1,O,0,0,4.4,['4.4'],['chembl25']
2868,C[C@@H](C(=O)[O-])c1ccc(OS(=O)(=O)C(F)(F)F)cc1,O,0,0,4.0,['4.0'],['chembl25']
2869,C[C@@H](C=C(c1ccccc1)c1ccccc1)[NH+](C)C,O,0,0,9.26,['9.26'],['datawarrior']
2870,C[C@@H](CC(C#N)(c1ccccc1)c1ccccc1)[NH+](C)C,O,0,0,8.31,['8.31'],['datawarrior']
2871,C[C@@H](C[NH3+])c1ccccc1,O,0,0,9.94,['9.94'],['datawarrior']
2872,C[C@@H](Cc1ccccc1)[NH+](C)C,O,0,0,9.4,['9.4'],['datawarrior']
2873,C[C@@H](Nc1ncnc2c1ncn2[C@@H]1O[C@H](CO)[C@@H](O)[C@H]1O)c1ccccc1,O,0,0,3.3,['3.3'],['chembl25']
2874,C[C@@H](O)[C@H](CCC=O)O[C@H]1O[C@H](C)[C@@H]([NH+](C)C)[C@H](O)[C@H]1O,O,0,0,7.0,['7.0'],['datawarrior']
2875,C[C@@H](Oc1nnc(-c2ccncc2)n1C)c1nnc(-c2cccc(Cl)c2)o1,O,0,0,3.7,['3.7'],['chembl25']
2876,C[C@@H](Oc1nnc(-c2ccncc2)n1C)c1noc(-c2cccc(Cl)c2)n1,O,0,0,3.4,['3.4'],['chembl25']
2877,C[C@@H]([C@H](O)c1ccccc1)[NH+](C)C,O,0,0,9.22,['9.22'],['datawarrior']
2878,C[C@@H](c1ccccc1)N(C)c1ncnc2c1ncn2[C@@H]1O[C@H](CO)[C@@H](O)[C@H]1O,O,0,0,3.2,['3.2'],['chembl25']
2879,C[C@@H]1CCCC[C@@H]1C(=O)[O-],O,0,0,5.04,['5.04'],['datawarrior']
2880,C[C@@H]1CCCC[C@@H]1[NH3+],O,0,0,10.6,['10.6'],['datawarrior']
2881,C[C@@H]1CCC[C@H](C(=O)[O-])C1,O,0,0,4.88,['4.88'],['datawarrior']
2882,C[C@@H]1CCC[C@H]([NH+](C)C)C1,O,0,0,10.51,['10.51'],['datawarrior']
2883,C[C@@H]1CC[C@H]2C(CN3CC[NH+](CCO)CC3)=C(C(F)(F)F)O[C@@H]3O[C@]4(C)CC[C@@H]1[C@@]23OO4,O,0,0,6.59,['6.59'],['chembl25']
2884,C[C@@H]1CC[NH+]2CC=C[C@H]12,O,0,0,10.59,['10.59'],['datawarrior']
2885,C[C@@H]1CC[NH+]2CC[C@H](O)[C@H]12,O,0,0,10.92,['10.92'],['datawarrior']
2886,C[C@@H]1CN(OCc2ccccc2)C(=O)[C@@H]1[NH3+],O,0,0,6.1,['6.1'],['chembl25']
2887,C[C@@H]1C[C@@H]1C(=O)[O-],O,0,0,5.03,['5.03'],['datawarrior']
2888,C[C@@H]1C[C@H](OC(=O)c2ccccc2)CC(C)(C)[NH2+]1,O,0,0,8.97,['8.97'],['datawarrior']
2889,C[C@@H]1NC(=[NH+]CC(F)F)Nc2ccc(Cl)c(Cl)c21,O,0,0,8.5,['8.5'],['chembl25']
2890,C[C@@H]1[C@H]2C3=CC[C@@H]4[C@@]5(C)CC[C@H](O)C(C)(C)[C@@H]5CC[C@@]4(C)[C@]3(C)CC[C@@]2(C(=O)[O-])CC[C@H]1C,O,0,0,5.29,['5.29'],['chembl25']
2891,C[C@@H]1[NH2+][C@@H]1C,O,0,0,5.34,['5.34'],['datawarrior']
2892,C[C@@H]1[NH2+][C@H]1C,O,0,0,5.33,['5.33'],['datawarrior']
2893,C[C@@](Cc1c[nH]c2ccccc12)(NC(=O)OC1C2CC3CC(C2)CC1C3)C(=O)NC[C@@H](NC(=O)CCn1[n-]nnc1=S)c1ccccc1,O,0,0,4.3,['4.3'],['chembl25']
2894,C[C@@](Cc1c[nH]c2ccccc12)(NC(=O)OC1C2CC3CC(C2)CC1C3)C(=O)NC[C@@H](NC(=O)Cc1cc(=O)[nH]o1)c1ccccc1,O,0,0,6.5,['6.5'],['chembl25']
2895,C[C@@](Cc1c[nH]c2ccccc12)(NC(=O)OC1C2CC3CC(C2)CC1C3)C(=O)NC[C@H](NC(=O)CCC(=O)[O-])c1ccccc1,O,0,0,5.6,['5.6'],['chembl25']
2896,C[C@@]1(C2CCCC2)Cc2cc(OCC(=O)[O-])c(Cl)c(Cl)c2C1=O,O,0,0,3.9,['3.9'],['chembl25']
2897,C[C@@]1(C2CCCC2)Cc2cc(OCCCC(=O)[O-])c(Cl)c(Cl)c2C1=O,O,0,0,5.7,['5.7'],['chembl25']
2898,C[C@@]1(c2cc(NC(=O)c3ccc(C#N)cn3)ccc2F)CCOC(N)=[NH+]1,O,0,0,9.7,['9.7'],['chembl25']
2899,C[C@@]1(c2cc(NC(=O)c3ccc(C#N)cn3)ccc2F)C[C@@H](C(F)(F)F)OC(N)=[NH+]1,O,0,0,7.0,['7.0'],['chembl25']
2900,C[C@@]1(c2cc(NC(=O)c3ccc(C#N)cn3)ccc2F)C[C@H](C(F)(F)F)OC(N)=[NH+]1,O,0,0,7.3,['7.3'],['chembl25']
2901,C[C@@]1(c2cc(NC(=O)c3ccc(Cl)cn3)ccc2F)CCCOC(N)=[NH+]1,O,0,0,10.4,['10.4'],['chembl25']
2902,C[C@@]1(c2cc(NC(=O)c3ccc(Cl)cn3)ccc2F)CCOC(N)=[NH+]1,O,0,0,9.8,['9.8'],['chembl25']
2903,C[C@@]1(c2cc(NC(=O)c3ccc(Cl)cn3)ccc2F)CCOCC(N)=[NH+]1,O,0,0,10.9,['10.9'],['chembl25']
2904,C[C@@]1(c2cc(NC(=O)c3ccc(Cl)cn3)ccc2F)CCSC(N)=[NH+]1,O,0,0,9.0,['9.0'],['chembl25']
2905,C[C@@]1(c2cc(NC(=O)c3ccc(Cl)cn3)ccc2F)COCC(N)=[NH+]1,O,0,0,9.2,['9.2'],['chembl25']
2906,C[C@@]1(c2cc(NC(=O)c3ccc(Cl)cn3)ccc2F)Cc2ccccc2C(N)=[NH+]1,O,0,0,10.8,['10.8'],['chembl25']
2907,C[C@@]1(c2cc(NC(=O)c3ncc(Cl)cc3Cl)ccc2F)CCOC(N)=[NH+]1,O,0,0,9.7,['9.7'],['chembl25']
2908,C[C@@]1(c2cccc(NC(=O)c3ccc(Cl)cn3)c2)COC(N)=[NH+]1,O,0,0,8.3,['8.3'],['chembl25']
2909,C[C@@]1(c2cccc(NC(=O)c3ccc(Cl)cn3)c2)COCC(N)=[NH+]1,O,0,0,9.6,['9.6'],['chembl25']
2910,C[C@@]12COCC[C@H]1Oc1ccc(-c3cccnc3F)cc1[C@@]21COC(N)=[NH+]1,O,0,0,6.4,['6.4'],['chembl25']
2911,C[C@H](C(=O)[O-])c1cccc(C(=O)c2ccccc2)c1,O,0,0,3.89,['3.89'],['chembl25']
2912,C[C@H](C1CC1C(=O)[O-])[C@H]1CC[C@H]2[C@@H]3[C@@H](O)C[C@@H]4C[C@H](O)CC[C@]4(C)[C@H]3CC[C@@]21C,O,0,0,5.01,['5.01'],['datawarrior']
2913,C[C@H](CCC(=O)[O-])[C@H]1CC[C@H]2[C@@H]3[C@@H](O)C[C@@H]4C[C@H](O)CC[C@]4(C)[C@H]3CC[C@@]21C,O,0,0,5.08,['5.08'],"['datawarrior', 'chembl25']"
2914,C[C@H](CCC(=O)[O-])[C@H]1CC[C@H]2[C@H]3[C@H](C[C@H](O)[C@@]21C)[C@@]1(C)CC[C@@H](O)C[C@H]1C[C@H]3O,O,0,0,4.98,['4.98'],['datawarrior']
2915,C[C@H](CCC[NH2+]Cc1ccccc1)[C@H]1CC[C@H]2[C@@H]3CC[C@@H]4C[C@H](O)CC[C@]4(C)[C@H]3C[C@H](O)[C@@]21C,O,0,0,9.07,['9.07'],['datawarrior']
2916,C[C@H](CCC[NH2+]Cc1ccccc1)[C@H]1CC[C@H]2[C@@H]3[C@@H](O)C[C@@H]4C[C@H](O)CC[C@]4(C)[C@H]3CC[C@@]21C,O,0,0,9.05,['9.05'],['datawarrior']
2917,C[C@H](CCC[NH2+]Cc1ccccc1)[C@H]1CC[C@H]2[C@H]3[C@H](CC[C@@]21C)[C@@]1(C)CC[C@@H](O)C[C@H]1C[C@H]3O,O,0,0,9.07,['9.07'],['datawarrior']
2918,C[C@H](CCC[NH3+])[C@H]1CC[C@H]2[C@@H]3CC[C@@H]4C[C@H](O)CC[C@]4(C)[C@H]3CC[C@@]21C,O,0,0,9.7,['9.7'],['datawarrior']
2919,C[C@H](CO)Nc1cc(C(=O)NS(C)(=O)=O)nc(SCc2ccccc2)n1,O,0,0,4.9,['4.9'],['chembl25']
2920,C[C@H](CO)Nc1cc(C(=O)[O-])nc(SCc2ccccc2)n1,O,0,0,5.5,['5.5'],['chembl25']
2921,C[C@H](CO)Nc1nc(SCc2cccc(F)c2F)nc2[nH]c(=O)cnc12,O,0,0,7.5,['7.5'],['chembl25']
2922,C[C@H](CO)Nc1nc(SCc2cccc(F)c2F)nc2nc(NS(C)(=O)=O)sc12,O,0,0,4.7,['4.7'],['chembl25']
2923,C[C@H](CO)Nc1nc(SCc2ccccc2)nc2[nH]c(=O)sc12,O,0,0,7.0,['7.0'],['chembl25']
2924,C[C@H](Cc1ccccc1)Nc1ncnc2c1ncn2[C@@H]1O[C@H](CO)[C@@H](O)[C@H]1O,O,0,0,3.4,['3.4'],['chembl25']
2925,C[C@H](NC(=O)c1[nH]ccc(=O)c1[O-])C(=O)NCc1ccccc1,O,0,0,6.0,['6.0'],['chembl25']
2926,C[C@H](O)C(O)c1cnc2nc(N)[nH]c(=O)c2n1,O,0,0,10.06,['10.06'],['datawarrior']
2927,C[C@H](O)[C@H]1CC[C@H]2[C@@H]3CC[C@H]4C[C@H]([NH3+])CC[C@]4(C)[C@H]3CC[C@]12C,O,0,0,9.28,['9.28'],['datawarrior']
2928,C[C@H]([C@@H]1C[C@@H]1C(=O)[O-])[C@H]1CC[C@H]2[C@@H]3[C@@H](O)CC4C[C@H](O)CC[C@]4(C)[C@H]3CC[C@@]21C,O,0,0,5.02,['5.02'],['chembl25']
2929,C[C@H]([C@H](O)c1ccccc1)[NH+](C)C,O,0,0,10.02,['10.02'],['datawarrior']
2930,C[C@H]([C@H]1C[C@H]1C(=O)[O-])[C@H]1CC[C@H]2[C@@H]3[C@@H](O)CC4C[C@H](O)CC[C@]4(C)[C@H]3CC[C@@]21C,O,0,0,5.04,['5.04'],['chembl25']
2931,C[C@H]([NH3+])[C@H](O)c1ccccc1,O,0,0,8.81,['8.81'],['datawarrior']
2932,C[C@H](c1ccccc1)N(CC(=O)[O-])S(=O)(=O)c1ccc(OC(F)F)cc1,O,0,0,3.4,['3.4'],['chembl25']
2933,C[C@H]1CCC2CC[C@H](C)[NH+]21,O,0,0,11.74,['11.74'],['datawarrior']
2934,C[C@H]1CCCC[C@@H]1C(=O)[O-],O,0,0,4.74,['4.74'],['datawarrior']
2935,C[C@H]1CCCC[C@@H]1[NH3+],O,0,0,10.62,['10.62'],['datawarrior']
2936,C[C@H]1CCC[C@@H](C)[NH+]1C,O,0,0,10.21,['10.21'],['datawarrior']
2937,C[C@H]1CCC[C@@H](C)[NH+]1CC(C)(C)O,O,0,0,10.65,['10.65'],['datawarrior']
2938,C[C@H]1CCC[C@@H](C)[NH2+]1,O,0,0,10.99,['10.99'],['datawarrior']
2939,C[C@H]1CC[C@@H](C(=O)[O-])CC1,O,0,0,5.04,['5.04'],['datawarrior']
2940,C[C@H]1CC[C@@H](C)[C@@H]1C(=O)[O-],O,0,0,4.69,['4.69'],['datawarrior']
2941,C[C@H]1CC[C@@H](C)[C@H]1C(=O)[O-],O,0,0,5.4,['5.4'],['datawarrior']
2942,C[C@H]1CC[C@@H]2CCC[NH+]12,O,0,0,11.74,['11.74'],['datawarrior']
2943,C[C@H]1CC[C@@H]2CC[C@@H](C)[NH+]12,O,0,0,11.48,['11.48'],['datawarrior']
2944,C[C@H]1CC[C@H](C(=O)[O-])CC1,O,0,0,4.89,['4.89'],['datawarrior']
2945,C[C@H]1CC[C@H](C)C1C(=O)[O-],O,0,0,4.74,['4.74'],['datawarrior']
2946,C[C@H]1CC[C@H]2CC[C@@H](C)[NH+]12,O,0,0,10.23,['10.23'],['datawarrior']
2947,C[C@H]1CC[C@H]2[C@H](C)CC[C@@H](C(=O)[O-])[NH+]2C1,O,0,0,10.8,['10.8'],['datawarrior']
2948,C[C@H]1CC[NH+]2CCC[C@@H]12,O,0,0,11.44,['11.44'],['datawarrior']
2949,C[C@H]1CN(C(=O)[C@@H]2C[NH+](C(C)(C)C)C[C@H]2c2ccc(F)cc2F)C[C@@H](C)[C@]1(O)c1ccc(F)cc1,O,0,0,8.74,['8.74'],['chembl25']
2950,C[C@H]1CN(C(=O)[C@@H]2C[NH+](C(C)(C)C)C[C@H]2c2ccc(F)cc2F)C[C@@H](C)[C@]1(O)c1ccccc1,O,0,0,8.95,['8.95'],['chembl25']
2951,C[C@H]1C[C@@H]2CCC[C@@H]2[NH+]1C,O,0,0,10.1,['10.1'],['datawarrior']
2952,C[C@H]1C[C@@H]2CC[NH+]1C2,O,0,0,10.62,['10.62'],['datawarrior']
2953,C[C@H]1C[C@H](C)C(=O)[C@H]([C@H](O)CC2CC(=O)NC(=O)C2)C1,O,0,0,11.2,['11.2'],['datawarrior']
2954,C[C@H]1C[C@]23[C@H]4CCC[NH+]2CCC[C@@H]3[C@@H](C[C@@H]4O)C1=O,O,0,0,9.13,['9.13'],['datawarrior']
2955,C[C@H]1NC(=[NH+]CC(F)F)Nc2ccc(Cl)c(Cl)c21,O,0,0,8.5,['8.5'],['chembl25']
2956,C[C@H]1OCC[C@H]2Oc3ccc(-c4cccnc4F)cc3[C@@]3(COC(N)=[NH+]3)[C@H]12,O,0,0,6.4,['6.4'],['chembl25']
2957,C[C@H]1SC(N)=[NH+][C@@]2(c3ccc(F)cc3F)CO[C@@H](c3cnn(C)c3)C[C@@H]12,O,0,0,7.8,['7.8'],['chembl25']
2958,C[C@H]1[C@H](NC(=O)/C(=N\OC(C)(C)C(=O)[O-])c2csc(N)n2)C(=O)N1S(=O)(=O)[O-],O,0,0,2.75,['2.75'],['chembl25']
2959,C[C@H]1c2c(F)cncc2N(Cc2ccccc2)C[C@@H](C)N1C(=O)NCc1ccccc1,O,0,0,4.2,['4.2'],['chembl25']
2960,C[C@H]1c2ccncc2N(Cc2ccccc2)C[C@@H](C)N1C(=O)NCc1ccccc1,O,0,0,6.2,['6.2'],['chembl25']
2961,C[C@](Cc1c[nH]c2ccccc12)(NC(=O)OC1C2CC3CC(C2)CC1C3)C(=O)NC[C@@H](NC(=O)CCC(=O)[O-])c1ccccc1,O,0,0,5.6,['5.6'],['chembl25']
2962,C[C@](Cc1c[nH]c2ccccc12)(NC(=O)OC1C2CC3CC(C2)CC1C3)C(=O)NC[C@@H](NC(=O)CCNS(=O)(=O)C(F)(F)F)c1ccccc1,O,0,0,7.9,['7.9'],['chembl25']
2963,C[C@](Cc1c[nH]c2ccccc12)(NC(=O)OC1C2CC3CC(C2)CC1C3)C(=O)NC[C@@H](NC(=O)CCc1nn[n-]n1)c1ccccc1,O,0,0,5.4,['5.4'],['chembl25']
2964,C[C@](Cc1c[nH]c2ccccc12)(NC(=O)OC1C2CC3CC(C2)CC1C3)C(=O)NC[C@H](NC(=O)CCNS(=O)(=O)C(F)(F)F)c1ccccc1,O,0,0,7.9,['7.9'],['chembl25']