,Solute SMILES,Solvent SMILES,Solute CAS,Solute IUPAC,pKa (avg),pKa (all),Source
1669,CCOC(=O)c1ccc(N)cc1,O,0,0,2.526667,['2.526667'],"['datawarrior', 'chembl25']"
1670,CCOC(=O)c1ccc(O)cc1,O,0,0,8.82,['8.82'],"['datawarrior', 'chembl25']"
1671,CCOC(=O)c1ccc(OS(N)(=O)=O)cc1,O,0,0,8.22,['8.22'],['chembl25']
1672,CCOC(=O)c1cccc(O)c1,O,0,0,9.05,['9.05'],['datawarrior']
1673,CCOC(=O)c1ccccc1NC(=O)C1=C(O)C(=O)N(C)C1,O,0,0,6.49,['6.49'],['chembl25']
1674,CCOC(=O)c1cccnc1,O,0,0,3.2,['3.2'],['datawarrior']
1675,CCOC(=O)c1cn(C)[nH]c1=O,O,0,0,6.71,['6.71'],['chembl25']
1676,CCOC(=O)c1cn2c(C)c(C)nc2c2c1CCC(c1ccccc1)O2,O,0,0,6.35,['6.35'],['chembl25']
1677,CCOC(=O)c1cnc2cc3c(cc2c1OCC)OCO3,O,0,0,4.09,['4.09'],['datawarrior']
1678,CCOC(=O)c1cnc2ccccc2c1OCC,O,0,0,3.88,['3.88'],['datawarrior']
1679,CCOC(=O)c1cncn1[C@H](C)c1ccccc1,O,0,0,4.5,['4.5'],['chembl25']
1680,CCOC(=O)c1n[nH]n(C)c1=O,O,0,0,6.21,['6.21'],['chembl25']
1681,CCOC(=O)c1n[nH]n(Cc2ccccc2)c1=O,O,0,0,6.22,['6.22'],['chembl25']
1682,CCOC(=O)c1ncn2c1CN(C)C(=O)c1cc(F)ccc1-2,O,0,0,6.2,['6.2'],['chembl25']
1683,CCOC(=O)c1nn(C)[nH]c1=O,O,0,0,5.14,['5.14'],['chembl25']
1684,CCOC(=O)c1nn(Cc2ccccc2)[nH]c1=O,O,0,0,5.14,['5.14'],['chembl25']
1685,CCOC(=O)c1s/c(=N/c2ccc3oc(=O)ccc3c2)n(CC)c1C,O,0,0,7.44,['7.44'],['chembl25']
1686,CCOC(=S)[N-]C(=O)c1ccccc1,O,0,0,7.46,['7.46'],['datawarrior']
1687,CCOC(C)=N,O,0,0,7.15,['7.15'],['datawarrior']
1688,CCOCC(=O)[O-],O,0,0,3.61,['3.61'],['datawarrior']
1689,CCOCCN(C)c1ccccc1,O,0,0,4.8,['4.8'],['datawarrior']
1690,CCOCCNc1ccc(C)cc1,O,0,0,4.6,['4.6'],['datawarrior']
1691,CCOCCNc1ccc(Cl)cc1,O,0,0,3.28,['3.28'],['datawarrior']
1692,CCOCCNc1ccc(OC)cc1,O,0,0,4.99,['4.99'],['datawarrior']
1693,CCOCCNc1cccc(C)c1,O,0,0,4.24,['4.24'],['datawarrior']
1694,CCOCCNc1cccc(OC)c1,O,0,0,3.67,['3.67'],['datawarrior']
1695,CCOCCNc1ccccc1,O,0,0,4.04,['4.04'],['datawarrior']
1696,CCOO,O,0,0,11.8,['11.8'],['datawarrior']
1697,CCOP(=O)(C[NH+]1CCOCC1)OCC,O,0,0,4.0,['4.0'],['datawarrior']
1698,CCOP(=O)(OCC)C(C)([NH3+])CCC[P+](c1ccccc1)(c1ccccc1)c1ccccc1,O,0,0,5.13,['5.13'],['chembl25']
1699,CCOP(=O)(OCC)C1(C)CCC[NH2+]1,O,0,0,7.01,['7.01'],['chembl25']
1700,CCOP(=O)(OCC)c1ccc(-c2cc(=O)o[nH]2)o1,O,0,0,3.23,['3.23'],['chembl25']
1701,CCO[C@@H]([C@H]1C[C@@H](C)[C@H]2[C@H](O1)[C@H](O)[C@@]1(C)[C@@H]3CC[C@H]4C(C)(C)[C@@H](O[C@H]5CN(C6C[NH+](CCO)C6)CCO5)CC[C@@]45C[C@@]35CC[C@]21C)C(C)(C)O,O,0,0,8.4,['8.4'],['chembl25']
1702,CCO[C@@H]([C@H]1C[C@@H](C)[C@H]2[C@H](O1)[C@H](O)[C@@]1(C)[C@@H]3CC[C@H]4C(C)(C)[C@@H](O[C@H]5CN(C6C[NH2+]C6)CCO5)CC[C@@]45C[C@@]35CC[C@]21C)C(C)(C)O,O,0,0,10.7,['10.7'],['chembl25']
1703,CCO[C@H]1C[C@@H]1C(=O)[O-],O,0,0,4.46,['4.46'],['datawarrior']
1704,CCO[C@H]1C[C@H]1C(=O)[O-],O,0,0,4.83,['4.83'],['datawarrior']
1705,CCOc1c(C#N)cnc2ccccc12,O,0,0,3.18,['3.18'],['datawarrior']
1706,CCOc1cc(C)nc(-n2[nH]c(C)cc2=O)n1,O,0,0,7.35,['7.35'],['datawarrior']
1707,CCOc1cc(C[NH+]2CCC(Nc3nc4cc(C(N)=O)ccc4o3)CC2)cc(OCC)c1F,O,0,0,7.72,['7.72'],['chembl25']
1708,CCOc1cc(C[NH+]2CCC(Nc3nc4cc(S(=O)(=O)CC)ccc4o3)CC2)cc(OC2CCOCC2)c1,O,0,0,7.55,['7.55'],['chembl25']
1709,CCOc1cc(C[NH+]2CCC(Nc3nc4cc(S(=O)(=O)CC)ccc4o3)CC2)ccc1OC,O,0,0,8.1,['8.1'],['chembl25']
1710,CCOc1cc(C[NH+]2CCC(Nc3nc4ccccc4o3)CC2)cc(OC2CCOCC2)c1,O,0,0,7.76,['7.76'],['chembl25']
1711,CCOc1cc(C[NH+]2CCC(Nc3nc4ccccc4o3)CC2)ccc1Cl,O,0,0,7.63,['7.63'],['chembl25']
1712,CCOc1cc(C[NH+]2CCC(Nc3nc4ccccc4o3)CC2)ccc1F,O,0,0,7.79,['7.79'],['chembl25']
1713,CCOc1cc(C[NH+]2CCC(Nc3nc4ccccc4o3)CC2)ccc1OC,O,0,0,8.3,['8.3'],['chembl25']
1714,CCOc1ccc(-c2ccc(CCC[NH+](C)C)cc2)cc1,O,0,0,9.82,['9.82'],['chembl25']
1715,CCOc1ccc(/[NH+]=C/N(C)C)cc1,O,0,0,9.24,['9.24'],['datawarrior']
1716,CCOc1ccc(C(=O)[O-])c(C)c1,O,0,0,4.54,['4.54'],['datawarrior']
1717,CCOc1ccc(C(=O)[O-])cc1,O,0,0,4.64,['4.64'],['datawarrior']
1718,CCOc1ccc(C(=O)c2ccc3n2CCC3C(=O)[O-])cc1,O,0,0,3.46,['3.46'],['chembl25']
1719,CCOc1ccc(C)c(C(=O)[O-])c1,O,0,0,3.86,['3.86'],['datawarrior']
1720,CCOc1ccc(N)cc1,O,0,0,5.25,['5.25'],['datawarrior']
1721,CCOc1ccc(NC(=O)c2cn3c(C)c(C)nc3c3c2CCC(c2ccccc2)O3)cc1,O,0,0,6.57,['6.57'],['chembl25']
1722,CCOc1ccc(O)cc1,O,0,0,10.23,['10.23'],['datawarrior']
1723,CCOc1ccc2[nH+]c(/C=C/C=C/c3ccccc3)cc(N)c2c1,O,0,0,9.5,['9.5'],['datawarrior']
1724,CCOc1ccc2[nH+]c(/C=C/c3ccccc3)cc(N)c2c1,O,0,0,9.5,['9.5'],['datawarrior']
1725,CCOc1ccc2[nH+]c3c(c(N4CCOCC4)c2c1)CCC3,O,0,0,7.11,['7.11'],['datawarrior']
1726,CCOc1ccc2c3c1O[C@H]1[C@@H](O)C=C[C@H]4[C@@H](C2)[NH+](C)CC[C@]314,O,0,0,8.03,['8.03'],['datawarrior']
1727,CCOc1ccc2ccccc2c1C(=O)N[C@@H]1C(=O)N2[C@@H](C(=O)[O-])C(C)(C)S[C@H]12,O,0,0,2.7,['2.7'],['chembl25']
1728,CCOc1ccc2nc(C(C)C)[nH]c2c1,O,0,0,6.17,['6.17'],['datawarrior']
1729,CCOc1ccc2nc(C)[nH]c2c1,O,0,0,6.22,['6.22'],['datawarrior']
1730,CCOc1ccc2nc(CC(C)C)[nH]c2c1,O,0,0,6.07,['6.07'],['datawarrior']
1731,CCOc1ccc2nc(CC)[nH]c2c1,O,0,0,6.27,['6.27'],['datawarrior']
1732,CCOc1ccc2nc[nH]c2c1,O,0,0,5.57,['5.57'],['datawarrior']
1733,CCOc1cccc(/[NH+]=C/N(C)C)c1,O,0,0,8.87,['8.87'],['datawarrior']
1734,CCOc1cccc(C(=O)N[C@H]2C[C@@H]3CC[C@H](C2)[NH+]3Cc2ccccc2)c1OC,O,0,0,8.78,['8.78'],['datawarrior']
1735,CCOc1cccc(C(=O)[O-])c1,O,0,0,4.17,['4.17'],['datawarrior']
1736,CCOc1cccc(C(=O)[O-])c1C,O,0,0,3.73,['3.73'],['datawarrior']
1737,CCOc1cccc(C(=O)c2ccc3n2CCC3C(=O)[O-])c1,O,0,0,3.46,['3.46'],['chembl25']
1738,CCOc1cccc(C)c1C(=O)[O-],O,0,0,3.51,['3.51'],['datawarrior']
1739,CCOc1cccc(N)c1,O,0,0,4.15,['4.15'],['datawarrior']
1740,CCOc1ccccc1/C=C/C(=O)[O-],O,0,0,4.68,['4.68'],['datawarrior']
1741,CCOc1ccccc1/C=C\C(=O)[O-],O,0,0,4.35,['4.35'],['datawarrior']
1742,CCOc1ccccc1C(=O)[O-],O,0,0,4.18,['4.18'],['datawarrior']
1743,CCOc1ccccc1N,O,0,0,4.51,['4.51'],['datawarrior']
1744,CCOc1ccccc1Nc1c2ccccc2nc2ccccc12,O,0,0,7.85,['7.85'],['chembl25']
1745,CCOc1ccccn1,O,0,0,3.47,['3.47'],['chembl25']
1746,CCOc1ccnc(=O)[nH]1,O,0,0,10.7,['10.7'],['datawarrior']
1747,CCOc1nccc(=O)[nH]1,O,0,0,8.2,['8.2'],['datawarrior']
1748,CCOc1noc2c1C[NH+](C)CC2,O,0,0,6.6,['6.6'],['chembl25']
1749,CCOc1noc2c1C[NH2+]CC2,O,0,0,7.6,['7.6'],['chembl25']
1750,CCS(=O)(=O)c1cc(OC)c(OC)c(C(=O)N[C@H]2C[C@@H]3CC[C@H](C2)[NH+]3Cc2ccccc2)c1,O,0,0,8.9,['8.9'],['datawarrior']
1751,CCS(=O)(=O)n1c2c(c3cc(C(=O)N4CCC(C)CC4)ccc31)C[NH+](C1CCOC1)CC2,O,0,0,5.9,['5.9'],['chembl25']
1752,CCS(=O)(=O)n1c2c(c3cc(C(=O)N4CCC(C)CC4)ccc31)C[NH+](C1CCOCC1)CC2,O,0,0,6.9,['6.9'],['chembl25']
1753,CCS(=O)[O-],O,0,0,2.27,['2.27'],['datawarrior']
1754,CCSC(=N)c1ccccc1,O,0,0,6.05,['6.05'],['datawarrior']
1755,CCSC(C)=N,O,0,0,6.9,['6.9'],['datawarrior']
1756,CCSC(C)C(=O)[O-],O,0,0,3.8,['3.8'],['datawarrior']
1757,CCSCC[NH+](CC)CC,O,0,0,9.03,['9.03'],['datawarrior']
1758,CCSCC[NH3+],O,0,0,9.48,['9.48'],['datawarrior']
1759,CCS[C@@H]1C(O)C2CC(=O)CC1[NH+]2C,O,0,0,5.15,['5.15'],['datawarrior']
1760,CC[C@@H](C(=O)[O-])[C@@]1(O)C[C@H]2CC[C@@H]1C2,O,0,0,4.26,['4.26'],['datawarrior']
1761,CC[C@@H](C)Nc1ncnc2c1ncn2[C@@H]1O[C@H](CO)[C@@H](O)[C@H]1O,O,0,0,3.7,['3.7'],['chembl25']
1762,CC[C@@H](C[C@H]1COC(N)=[NH+]1)c1ccccc1,O,0,0,8.98,['8.98'],['chembl25']
1763,CC[C@@H]1C(=O)OC[C@@H]1Cc1cncn1C,O,0,0,6.99,['6.99'],['datawarrior']
1764,CC[C@@H]1C(=O)OC[C@H]1Cc1cncn1C,O,0,0,7.17,['7.17'],['datawarrior']
1765,CC[C@H](C(=O)[O-])[C@@]1(O)C[C@H]2CC[C@@H]1C2,O,0,0,4.07,['4.07'],['datawarrior']
1766,CC[C@H](C)C(=O)O[C@H]1C[C@H](O)C=C2C=C[C@H](C)[C@H](CC[C@@H](O)C[C@@H](O)CC(=O)[O-])[C@H]21,O,0,0,4.7,['4.7'],['chembl25']
1767,CC[C@H](C)Nc1cc(C(=O)N[C@@H](Cc2ccccc2)[C@H](O)[C@H]2CCC[NH2+]2)cc(S(C)(=O)=O)n1,O,0,0,9.4,['9.4'],['chembl25']
1768,CC[C@H](NC(=O)c1cc(F)ccc1NS(=O)(=O)c1ccc(Cl)cc1)c1ccccc1,O,0,0,3.8,['3.8'],['chembl25']
1769,CC[C@H](NC(=O)c1cc(OC)ccc1NS(=O)(=O)c1ccc(C)cc1)c1ccccc1,O,0,0,7.5,['7.5'],['chembl25']
1770,CC[C@H](NC(=O)c1ccccc1NS(=O)(=O)c1ccc(C(F)(F)F)cc1)c1ccccc1,O,0,0,4.0,['4.0'],['chembl25']
1771,CC[C@H]1C[NH+]2CCc3cc(OC)c(OC)cc3[C@@H]2C[C@@H]1CC=O,O,0,0,8.11,['8.11'],['datawarrior']
1772,CC[C@H]1OC(=O)C[C@@H](O)[C@H](C)[C@@H](O[C@@H]2O[C@H](C)C[C@H]([NH+](C)C)[C@H]2O)[C@@H](CC=O)C[C@@H](C)C(=O)/C=C\[C@]2(C)O[C@H]2[C@@H]1C,O,0,0,8.79,['8.79'],['chembl25']
1773,CC[C@]1(C)NC(=O)c2cc(S(=O)(=O)Nc3ccc(C(F)(F)F)cc3)ccc2NC1=O,O,0,0,6.9,['6.9'],['chembl25']
1774,CC[C@]1(C)NC(=O)c2cc(S(=O)(=O)Nc3ccc(F)cc3F)ccc2NC1=O,O,0,0,7.3,['7.3'],['chembl25']
1775,CC[C@]1(C)NC(=O)c2cc(S(=O)(=O)Nc3ccc(OC(F)F)cc3)ccc2NC1=O,O,0,0,7.9,['7.9'],['chembl25']
1776,CC[C@]1(O)C[C@@H](C)[NH2+][C@@H]2CCCC[C@H]21,O,0,0,10.31,['10.31'],['datawarrior']
1777,CC[C@]1(O)C[C@@H](C)[NH2+][C@H]2CCCC[C@@H]21,O,0,0,9.71,['9.71'],['datawarrior']
1778,CC[C@]1(O)C[C@H](C)[NH2+][C@@H]2CCCC[C@H]21,O,0,0,10.05,['10.05'],['datawarrior']
1779,CC[C@]1(c2ccccc2)NC(=O)NC1=O,O,0,0,8.5,['8.5'],['datawarrior']
1780,CC[C@]12CCC[NH+]3CC[C@@]4(c5cccc(OC)c5N(C(C)=O)[C@H]4CC1)[C@@H]32,O,0,0,7.57,['7.57'],['datawarrior']
1781,CC[C@]12CCC[NH+]3CCc4c(n(c5ccccc45)CC1)[C@@H]32,O,0,0,6.9,['6.9'],['datawarrior']
1782,CC[N+](C)(C)C1CN(c2cc3c(cc2F)c(=O)c(C(=O)[O-])cn3C2CC2)C1,O,0,0,6.46,['6.46'],['chembl25']
1783,CC[N+](C)(CC)CCSC(N=O)C(=O)c1ccc(C#N)cc1,O,0,0,6.72,['6.72'],['chembl25']
1784,CC[N+](C)(CC)CCSC(N=O)C(=O)c1ccc(Cl)cc1,O,0,0,7.17,['7.17'],['chembl25']
1785,CC[N+](C)(CC)CCSC(N=O)C(=O)c1ccc(F)cc1,O,0,0,7.31,['7.31'],['chembl25']
1786,CC[N+](C)(CC)CCSC(N=O)C(=O)c1ccc(OC)cc1,O,0,0,7.7,['7.7'],['chembl25']
1787,CC[N+]([O-])(CC)CC,O,0,0,5.13,['5.13'],['datawarrior']
1788,CC[NH+](C(C)C)C(C)C,O,0,0,11.44,['11.44'],['datawarrior']
1789,CC[NH+](C)C,O,0,0,10.125,['10.125'],"['datawarrior', 'chembl25']"
1790,CC[NH+](C)CC,O,0,0,10.39,['10.39'],['datawarrior']
1791,CC[NH+](C)CCCNC(=O)CN=O,O,0,0,9.345,['9.345'],['datawarrior']
1792,CC[NH+](C)Cc1no[n+]([O-])c1C#N,O,0,0,5.79,['5.79'],['chembl25']
1793,CC[NH+](CC)/N=C(\C)N,O,0,0,10.6,['10.6'],['datawarrior']
1794,CC[NH+](CC)C(C)(C)C=O,O,0,0,8.3,['8.3'],['datawarrior']
1795,CC[NH+](CC)C(C)C(=O)Nc1c(C)cccc1C,O,0,0,8.053333,['8.053333'],"['datawarrior', 'chembl25']"
1796,CC[NH+](CC)C(C)C=C(c1cccs1)c1cccs1,O,0,0,8.9,['8.9'],['datawarrior']
1797,CC[NH+](CC)C(C)CC(=O)Nc1c(C)cccc1C,O,0,0,9.03,['9.03'],['chembl25']
1798,CC[NH+](CC)C(C)CCC(=O)Nc1c(C)cccc1C,O,0,0,9.87,['9.87'],['chembl25']
1799,CC[NH+](CC)C(C)CCCC(=O)Nc1c(C)cccc1C,O,0,0,10.1,['10.1'],['chembl25']
1800,CC[NH+](CC)C(C)O,O,0,0,10.2,['10.2'],['datawarrior']
1801,CC[NH+](CC)CC,O,0,0,10.765,['10.765'],"['datawarrior', 'chembl25']"
1802,CC[NH+](CC)CC(=O)N(C)c1ccccc1C,O,0,0,8.74,['8.74'],['datawarrior']
1803,CC[NH+](CC)CC(=O)NC1CCCCC1,O,0,0,8.21,['8.21'],['datawarrior']
1804,CC[NH+](CC)CC(=O)NC1CCc2ccccc21,O,0,0,8.19,['8.19'],['datawarrior']
1805,CC[NH+](CC)CC(=O)NC1c2ccccc2-c2ccccc21,O,0,0,7.98,['7.98'],['datawarrior']
1806,CC[NH+](CC)CC(=O)NCc1ccccc1,O,0,0,8.07,['8.07'],['datawarrior']
1807,CC[NH+](CC)CC(=O)Nc1c(C)cc(C)cc1C,O,0,0,7.9,['7.9'],['datawarrior']
1808,CC[NH+](CC)CC(=O)Nc1c(C)cccc1C,O,0,0,7.873636,['7.873636'],"['datawarrior', 'chembl25']"
1809,CC[NH+](CC)CC(=O)Nc1cc(C)cc(C)c1,O,0,0,8.01,['8.01'],['datawarrior']
1810,CC[NH+](CC)CC(=O)Nc1cc(C)ccc1C,O,0,0,7.92,['7.92'],['datawarrior']
1811,CC[NH+](CC)CC(=O)Nc1ccc(C)cc1,O,0,0,8.13,['8.13'],['datawarrior']
1812,CC[NH+](CC)CC(=O)Nc1ccc(C)cc1C,O,0,0,7.95,['7.95'],['datawarrior']
1813,CC[NH+](CC)CC(=O)Nc1ccccc1,O,0,0,8.0,['8.0'],['datawarrior']
1814,CC[NH+](CC)CC(=O)Nc1ccccc1C,O,0,0,7.95,['7.95'],['datawarrior']
1815,CC[NH+](CC)CC(C)N=O,O,0,0,10.98,['10.98'],['datawarrior']
1816,CC[NH+](CC)CC(N=O)C(C)N=O,O,0,0,10.75,['10.75'],['datawarrior']
1817,CC[NH+](CC)CC(O)CO,O,0,0,9.77,['9.77'],['datawarrior']
1818,CC[NH+](CC)CC1CO1,O,0,0,8.55,['8.55'],['datawarrior']
1819,CC[NH+](CC)CCBr,O,0,0,7.0,['7.0'],['datawarrior']
1820,CC[NH+](CC)CCC(=O)Nc1c(C)cccc1C,O,0,0,8.895,['8.895'],"['datawarrior', 'chembl25']"
1821,CC[NH+](CC)CCC(C)=O,O,0,0,9.25,['9.25'],['datawarrior']
1822,CC[NH+](CC)CCC(OC(=O)c1ccccc1)c1ccccc1,O,0,0,7.53,['7.53'],['datawarrior']
1823,CC[NH+](CC)CCCC#N,O,0,0,9.29,['9.29'],['datawarrior']
1824,CC[NH+](CC)CCCC(=O)Nc1c(C)cccc1C,O,0,0,9.52,['9.52'],['chembl25']
1825,CC[NH+](CC)CCCC(C)=O,O,0,0,10.1,['10.1'],['datawarrior']
1826,CC[NH+](CC)CCCCC#N,O,0,0,10.08,['10.08'],['datawarrior']
1827,CC[NH+](CC)CCCCC(=O)Nc1c(C)cccc1C,O,0,0,9.96,['9.96'],['chembl25']
1828,CC[NH+](CC)CCCCCC(=O)Nc1c(C)cccc1C,O,0,0,10.24,['10.24'],['chembl25']
1829,CC[NH+](CC)CCCCCCC(=O)Nc1c(C)cccc1C,O,0,0,10.24,['10.24'],['chembl25']
1830,CC[NH+](CC)CCCN1c2cc(F)ccc2CCc2ccc(F)cc21,O,0,0,7.65,['7.65'],['chembl25']
1831,CC[NH+](CC)CCCNC(=O)CN=O,O,0,0,9.54,['9.54'],['datawarrior']
1832,CC[NH+](CC)CCC[C@@H](C)[C@H]1CC[C@H]2[C@@H]3CC[C@@H]4C[C@H](O)CC[C@]4(C)[C@H]3C[C@H](O)[C@@]21C,O,0,0,10.34,['10.34'],['datawarrior']
1833,CC[NH+](CC)CCN1C(=O)Nc2ccccc2C1c1ccccc1,O,0,0,10.23,['10.23'],['chembl25']
1834,CC[NH+](CC)CCNC(=O)[C@H]1C[C@@H]1c1ccccc1,O,0,0,8.9,['8.9'],['chembl25']
1835,CC[NH+](CC)CCNC(=O)c1cc(Cl)c(N)cc1OC,O,0,0,9.471667,['9.471667'],['chembl25']
1836,CC[NH+](CC)CCNc1nc2c(=O)c3cc(C)ccc3[nH]c2s1,O,0,0,8.4,['8.4'],['chembl25']
1837,CC[NH+](CC)CCNc1nc2c(=O)c3cc(F)ccc3[nH]c2s1,O,0,0,8.3,['8.3'],['chembl25']
1838,CC[NH+](CC)CCNc1nc2c(=O)c3ccccc3[nH]c2s1,O,0,0,9.3,['9.3'],['chembl25']
1839,CC[NH+](CC)CCO,O,0,0,9.84,['9.84'],['datawarrior']
1840,CC[NH+](CC)CCO/N=C1/C[C@H]2C(C)(C)O[C@H]3CC(=O)OC[C@]32[C@H]2CC[C@@]3(C)[C@H](c4ccoc4)OC(=O)[C@H]4O[C@]43[C@]12C,O,0,0,9.17,['9.17'],['chembl25']
1841,CC[NH+](CC)CCOC(=O)c1ccc2ccccc2c1,O,0,0,7.52,['7.52'],['datawarrior']
1842,CC[NH+](CC)CCOC(=O)c1ccccc1,O,0,0,8.9,['8.9'],['datawarrior']
1843,CC[NH+](CC)CCOc1ccc(C(=O)N2C/C(=C\c3ccccc3)C(=O)/C(=C/c3ccccc3)C2)cc1,O,0,0,10.84,['10.84'],['chembl25']
1844,CC[NH+](CC)CCSC,O,0,0,9.62,['9.62'],['datawarrior']
1845,CC[NH+](CC)CCSC(C)C,O,0,0,9.32,['9.32'],['datawarrior']
1846,CC[NH+](CC)CCSC1CCCCC1,O,0,0,8.11,['8.11'],['datawarrior']
1847,CC[NH+](CC)CCSCC(C)C,O,0,0,8.83,['8.83'],['datawarrior']
1848,CC[NH+](CC)CCn1ccc(=O)c([O-])c1C,O,0,0,8.57,['8.57'],['chembl25']
1849,CC[NH+](CC)Cc1ccccc1,O,0,0,9.44,['9.44'],['datawarrior']
1850,CC[NH+](CC)Cc1ccccc1OC,O,0,0,10.2,['10.2'],['datawarrior']
1851,CC[NH+](CC)Cc1cn2nc(-c3ccccc3)cc(C)c2n1,O,0,0,8.79,['8.79'],['datawarrior']
1852,CC[NH+](CC)Cc1no[n+]([O-])c1C#N,O,0,0,5.8,['5.8'],['chembl25']
1853,CC[NH+](CC1CO1)CC1CO1,O,0,0,6.91,['6.91'],['datawarrior']
1854,CC[NH+](CCO)CC(C)O,O,0,0,8.9,['8.9'],['datawarrior']
1855,CC[NH+](Cc1ccccc1)Cc1no[n+]([O-])c1C#N,O,0,0,5.58,['5.58'],['chembl25']
1856,CC[NH+]1CC1,O,0,0,7.91,['7.91'],['datawarrior']
1857,CC[NH+]1CCC=C1C,O,0,0,11.88,['11.88'],['datawarrior']
1858,CC[NH+]1CCCC1,O,0,0,10.96,['10.96'],['datawarrior']
1859,CC[NH+]1CCCC1C,O,0,0,10.6,['10.6'],['datawarrior']
1860,CC[NH+]1CCCC=C1C,O,0,0,11.57,['11.57'],['datawarrior']
1861,CC[NH+]1CCCCC1,O,0,0,10.68,['10.68'],['datawarrior']
1862,CC[NH+]1CCCCC1C,O,0,0,10.68,['10.68'],['datawarrior']
1863,CC[NH+]1CCC[C@H]1CNC(=O)c1c(OC)ccc(Br)c1OC,O,0,0,8.9,['8.9'],['chembl25']
1864,CC[NH+]1CCN(c2cc(=O)oc3c(C)c(O[C@@H]4OC(C)(C)[C@H](OC)[C@@H](OC(=O)c5ccc(C)[nH]5)[C@H]4O)ccc23)CC1,O,0,0,7.5,['7.5'],['chembl25']
1865,CC[NH+]1CCOCC1,O,0,0,7.72,['7.72'],['datawarrior']
1866,CC[NH+]1CCc2onc(OC)c2C1,O,0,0,7.0,['7.0'],['chembl25']
1867,CC[NH+]1[C@@H](C)[C@@H]1C,O,0,0,9.41,['9.41'],['datawarrior']
1868,CC[NH+]1[C@@H](C)[C@H]1C,O,0,0,8.57,['8.57'],['datawarrior']
1869,CC[NH+]=C(N)[NH+]=C(N)Nc1ccc(Cl)cc1,O,0,0,10.82,['10.82'],['chembl25']
1870,CC[NH+]=C1Nc2ccccc2C(C)N1,O,0,0,10.8,['10.8'],['chembl25']
1871,CC[NH2+]C(C)C,O,0,0,11.03,['11.03'],['datawarrior']
1872,CC[NH2+]C(C)Cc1cccc(C(F)(F)F)c1,O,0,0,10.0,['10.0'],['chembl25']
1873,CC[NH2+]CC,O,0,0,11.05,['11.05'],['datawarrior']
1874,CC[NH2+]CC(=O)N(CC)CC,O,0,0,8.78,['8.78'],['datawarrior']
1875,CC[NH2+]CC(=O)Nc1c(C)cccc1C,O,0,0,8.06,['8.06'],['datawarrior']
1876,CC[NH2+]CCC[C@@]1(c2ccccc2)C=C(c2cc(F)ccc2F)CN1C(=O)N(C)C,O,0,0,10.7,['10.7'],['chembl25']
1877,CC[NH2+]Cc1ccc(C)cc1,O,0,0,10.04,['10.04'],['datawarrior']
1878,CC[NH2+]Cc1ccccc1,O,0,0,9.75,['9.75'],['datawarrior']
1879,CC[NH3+],O,0,0,10.77,['10.77'],"['datawarrior', 'chembl25']"
1880,CCc1[nH]c(C)c[nH+]1,O,0,0,8.5,['8.5'],['datawarrior']
1881,CCc1[nH]c2cc(F)ccc2c1C1CC[NH+](CCCSc2ccc(F)cc2)CC1,O,0,0,9.8,['9.8'],['chembl25']
1882,CCc1[nH]cc[nH+]1,O,0,0,7.836667,['7.836667'],"['datawarrior', 'chembl25']"
1883,CCc1c(-c2ccccc2)[nH][nH]c1=O,O,0,0,7.8,['7.8'],['datawarrior']
1884,CCc1c(-c2ccccc2)[nH]n(-c2ccccc2)c1=O,O,0,0,8.0,['8.0'],['datawarrior']
1885,CCc1c(C)[nH]n(C)c1=O,O,0,0,3.5,['3.5'],['datawarrior']
1886,CCc1c(C)nc2c3c(c(C(=O)N(C)C)cn12)CCC(c1ccccc1)O3,O,0,0,6.7,['6.7'],['chembl25']
1887,CCc1c(C)nnc(C)c1C,O,0,0,5.17,['5.17'],['datawarrior']
1888,CCc1c(O)ccc(C(C)C)c1C,O,0,0,10.85,['10.85'],['datawarrior']
1889,CCc1c([O-])c(=O)ccn1CC,O,0,0,9.93,['9.93'],['chembl25']
1890,CCc1c([O-])cc(C)oc1=O,O,0,0,5.3,['5.3'],['datawarrior']
1891,CCc1c[nH+]ccc1N,O,0,0,9.17,['9.17'],['datawarrior']
1892,CCc1cc(/N=N/c2ccc(N(C)C)cc2)ccc1C,O,0,0,2.59,['2.59'],['datawarrior']
1893,CCc1cc(C(=O)[O-])cs1,O,0,0,4.19,['4.19'],['datawarrior']
1894,CCc1cc(C(C)C)c(O)cc1C,O,0,0,10.91,['10.91'],['datawarrior']
1895,CCc1cc(C(C)C)ccc1O,O,0,0,10.77,['10.77'],['datawarrior']
1896,CCc1cc(C)cc(O)c1,O,0,0,10.1,['10.1'],['datawarrior']
1897,CCc1cc(C)nnc1C,O,0,0,4.73,['4.73'],['datawarrior']
1898,CCc1cc(Cl)n(C)c2nc3ccccc3c1-2,O,0,0,7.46,['7.46'],['datawarrior']
1899,CCc1cc(N)cc(N2CCc3ccccc3C2)[nH+]1,O,0,0,9.0,['9.0'],['chembl25']
1900,CCc1cc(O)cc(C)c1Cl,O,0,0,9.6,['9.6'],['datawarrior']
1901,CCc1cc2c(C)cc(=O)oc2cc1O,O,0,0,8.01,['8.01'],['datawarrior']
1902,CCc1ccc(-n2c(Cl)cc3[nH]c(=O)c(-c4ccccc4)c([O-])c32)cc1,O,0,0,6.0,['6.0'],['chembl25']
1903,CCc1ccc(/N=N/c2ccc(N(C)C)cc2)cc1C,O,0,0,2.6,['2.6'],['datawarrior']
1904,CCc1ccc(/N=N/c2ccc(N(C)C)cc2)cc1CC,O,0,0,2.58,['2.58'],['datawarrior']
1905,CCc1ccc(C(=O)/C=C/C(=O)[O-])cc1,O,0,0,3.38,['3.38'],['datawarrior']
1906,CCc1ccc(C(=O)[O-])nc1,O,0,0,5.86,['5.86'],['datawarrior']
1907,CCc1ccc(C(C)C)cc1O,O,0,0,10.61,['10.61'],['datawarrior']
1908,CCc1ccc(C)nn1,O,0,0,4.17,['4.17'],['datawarrior']
1909,CCc1ccc(CCCC[NH+](C)C)cc1,O,0,0,9.9,['9.9'],['chembl25']
1910,CCc1ccc(CCC[NH+](C)C)cc1,O,0,0,10.63,['10.63'],['chembl25']
1911,CCc1ccc(N)cc1,O,0,0,5.16,['5.16'],['datawarrior']
1912,CCc1ccc(O)c(C(C)C)c1,O,0,0,10.82,['10.82'],['datawarrior']
1913,CCc1ccc(O)cc1,O,0,0,10.105,['10.105'],['chembl25']
1914,CCc1ccc2c(c1)[C@@H](NC[C@@H](O)[C@H](Cc1cc(F)cc(F)c1)NC(C)=O)CS(=O)(=O)C2,O,0,0,5.8,['5.8'],['chembl25']
1915,CCc1cccc(/N=N/c2ccc(N(C)C)cc2)c1,O,0,0,2.16,['2.16'],['datawarrior']
1916,CCc1cccc(C)c1CNc1cc(C(=O)N(C)C)[nH+]c2c(Br)c(C)[nH]c12,O,0,0,5.84,['5.84'],['chembl25']
1917,CCc1cccc(C)c1CNc1cc(C(=O)N(C)C)[nH+]c2c(C)c(C)[nH]c12,O,0,0,7.57,['7.57'],['chembl25']
1918,CCc1cccc(C)c1CNc1cc(C(=O)N(C)C)[nH+]c2c(CO)c(C)[nH]c12,O,0,0,7.07,['7.07'],['chembl25']
1919,CCc1cccc(C)c1CNc1cc(C(=O)N(C)C)[nH+]c2cc(C)[nH]c12,O,0,0,7.39,['7.39'],['chembl25']
1920,CCc1cccc(C)c1CNc1cc(C(N)=O)cn2c(C)c(C)nc12,O,0,0,6.1,['6.1'],['chembl25']
1921,CCc1cccc(CC)c1NC1=[NH+]CCN1,O,0,0,10.606667,['10.606667'],['chembl25']
1922,CCc1cccc2c3c([nH]c12)C(CC)(CC(=O)[O-])OCC3,O,0,0,4.7,['4.7'],['chembl25']
1923,CCc1cccc2cc(C(O)C[NH2+]C(C)(C)C)oc12,O,0,0,8.95,['8.95'],['chembl25']
1924,CCc1cccc2ccc(O)cc12,O,0,0,9.54,['9.54'],['datawarrior']
1925,CCc1ccccc1C(=O)N(C1CCC2(CC1)OCCO2)C(Cc1ccc(Cl)cc1)C[NH+](C)C,O,0,0,7.4,['7.4'],['chembl25']
1926,CCc1ccccc1C(=O)[O-],O,0,0,3.79,['3.79'],['datawarrior']
1927,CCc1ccccc1N,O,0,0,4.37,['4.37'],['datawarrior']
1928,CCc1ccccc1Nc1c2ccccc2nc2ccccc12,O,0,0,7.68,['7.68'],['chembl25']
1929,CCc1ccccc1O,O,0,0,10.2,['10.2'],['chembl25']
1930,CCc1ccccn1,O,0,0,5.975,['5.975'],"['datawarrior', 'chembl25']"
1931,CCc1cccnc1,O,0,0,5.57,['5.57'],['datawarrior']
1932,CCc1cccnn1,O,0,0,3.58,['3.58'],['datawarrior']
1933,CCc1ccnc2c1ccc1c(CC)ccnc12,O,0,0,5.6,['5.6'],['datawarrior']
1934,CCc1ccnc2c1ccc1cccnc12,O,0,0,5.44,['5.44'],['datawarrior']
1935,CCc1ccncc1,O,0,0,5.94,['5.94'],['datawarrior']
1936,CCc1ccnnc1C,O,0,0,4.03,['4.03'],['datawarrior']
1937,CCc1cnc(C(=O)[O-])cc1CC,O,0,0,6.58,['6.58'],['datawarrior']
1938,CCc1cnc2c(ccc3cccnc32)c1,O,0,0,4.98,['4.98'],['datawarrior']
1939,CCc1cncc(C)c1,O,0,0,5.2,['5.2'],['datawarrior']
1940,CCc1cnnc(C)c1,O,0,0,4.17,['4.17'],['datawarrior']