,Solute SMILES,Solvent SMILES,Solute CAS,Solute IUPAC,pKa (avg),pKa (all),Source
1941,CCc1nc(N)nc(N)c1-c1ccc(Cl)cc1,O,0,0,7.36,['7.36'],['chembl25']
1942,CCc1nc(N)nc(N)c1-c1ccc2c(c1)N(CCCOC)C(=O)C(C)(C)O2,O,0,0,8.0,['8.0'],['chembl25']
1943,CCc1nc(N)nc(N)c1-c1ccc2c(c1)N(CCCOC)C(=O)C(C)(c1cc(F)cc(F)c1)O2,O,0,0,8.0,['8.0'],['chembl25']
1944,CCc1nc(N)nc(N)c1-c1ccc2c(c1)N(CCCOC)C(=O)CO2,O,0,0,8.0,['8.0'],['chembl25']
1945,CCc1nc(N)nc(N)c1-c1ccc2c(c1)N(CCCOC)CCO2,O,0,0,8.0,['8.0'],['chembl25']
1946,CCc1nc(N)nc(N)c1-c1ccc2c(c1)N(CCNC(C)=O)C(=O)C(C)(C)O2,O,0,0,8.0,['8.0'],['chembl25']
1947,CCc1nc(N)nc(N)c1-c1ccc2c(c1)N(CCNC(C)=O)C(=O)C(C)(c1cc(F)cc(F)c1)O2,O,0,0,8.0,['8.0'],['chembl25']
1948,CCc1nc2c(-c3ccc(Cl)cc3Cl)ccnc2n1C(CC)C1CC1,O,0,0,3.86,['3.86'],['chembl25']
1949,CCc1nc2cc3c(cc2[nH]1)CCCC3,O,0,0,6.64,['6.64'],['datawarrior']
1950,CCc1nc2cc3ccccc3cc2[nH]1,O,0,0,6.14,['6.14'],['datawarrior']
1951,CCc1nc2ccccc2[nH]1,O,0,0,6.2,['6.2'],['datawarrior']
1952,CCc1nn(CCC[NH+]2CCN(c3cccc(Cl)c3)CC2)c(=O)n1CCOc1ccccc1,O,0,0,6.645,['6.645'],['chembl25']
1953,CCc1nn[n-]n1,O,0,0,5.59,['5.59'],['datawarrior']
1954,CCc1nsc(=O)[nH]1,O,0,0,6.89,['6.89'],['datawarrior']
1955,CCc1oc2ccccc2c(=O)c1C(=O)c1cc(Br)c([O-])c(Br)c1,O,0,0,4.72,['4.72'],['chembl25']
1956,CCc1oc2ccccc2c(=O)c1C(=O)c1cc(I)c([O-])c(I)c1,O,0,0,4.89,['4.89'],['chembl25']
1957,CCc1oc2ccccc2c(=O)c1C(=O)c1ccc(O)cc1,O,0,0,7.74,['7.74'],['chembl25']
1958,CCc1oc2ccccc2c1C(=O)Cc1cc(Br)c([O-])c(Br)c1,O,0,0,8.6,['8.6'],['chembl25']
1959,CCc1oc2ccccc2c1C(=O)c1cc(Br)c([O-])c(Br)c1,O,0,0,4.5,['4.5'],['chembl25']
1960,CCc1oc2ccccc2c1C(=O)c1cc(C)c(O)c(C)c1,O,0,0,8.5,['8.5'],['chembl25']
1961,CCc1oc2ccccc2c1C(O)c1cc(Br)c([O-])c(Br)c1,O,0,0,8.8,['8.8'],['chembl25']
1962,CCn1c(-c2ccc(OC)cc2)cs/c1=N/c1ccc2oc(=O)ccc2c1,O,0,0,7.63,['7.63'],['chembl25']
1963,CCn1c(=O)c2[nH]c(-c3ccccc3)nc2n(CC)c1=O,O,0,0,9.1,['9.1'],['chembl25']
1964,CCn1c(=O)nc2sc(S(N)(=O)=O)nn2c1=O,O,0,0,7.3,['7.3'],['chembl25']
1965,CCn1c(C)c(C)c2cc(-n3ccccc3=O)nc(NCc3c(C)cccc3C)c21,O,0,0,4.0,['4.0'],['chembl25']
1966,CCn1cc(C(=O)OCN(C)C(=O)OC)c(=O)c2ccc(C)nc21,O,0,0,6.0,['6.0'],['chembl25']
1967,CCn1cc(C2(c3cccc(-c4cncnc4)c3)[NH+]=C(N)c3c(F)cccc32)cc(C)c1=O,O,0,0,7.7,['7.7'],['chembl25']
1968,CCn1cc([C@]2(c3cccc(C#CC4CC4)c3)[NH+]=C(N)c3c(F)cccc32)cc(C)c1=O,O,0,0,7.6,['7.6'],['chembl25']
1969,CCn1cc([C@]2(c3cccc(NC(=O)c4ccc(Cl)cn4)c3)[NH+]=C(N)c3c(F)cccc32)cc(C)c1=O,O,0,0,7.3,['7.3'],['chembl25']
1970,CCn1ccc(=O)c([O-])c1C(C)O,O,0,0,8.755,['8.755'],['chembl25']
1971,CCn1cccc([O-])c1=O,O,0,0,8.99,['8.99'],"['datawarrior', 'chembl25']"
1972,CCn1ccnc1C,O,0,0,8.09,['8.09'],['datawarrior']
1973,CCn1cnc2ccccc21,O,0,0,5.66,['5.66'],['datawarrior']
1974,CCn1cncn1,O,0,0,2.39,['2.39'],['datawarrior']
1975,CCn1nc(-c2ccccc2)sc1=N,O,0,0,6.1,['6.1'],['datawarrior']
1976,CCn1nc(C(=O)[O-])c(=O)c2cc3c(cc21)OCO3,O,0,0,4.7,['4.7'],['chembl25']
1977,CCn1nnc(CC(=O)[O-])n1,O,0,0,3.45,['3.45'],['datawarrior']
1978,CCn1nnnc1CC(=O)[O-],O,0,0,2.85,['2.85'],['datawarrior']
1979,CCn1nnnc1NC(C)=O,O,0,0,8.38,['8.38'],['datawarrior']
1980,CN(C(=O)N1CC(c2cc(F)ccc2F)=C[C@@]1(CO)c1ccccc1)C1CCN(CC(F)F)CC1,O,0,0,4.9,['4.9'],['chembl25']
1981,CN(C(=O)N1CC(c2cc(F)ccc2F)=C[C@@]1(CO)c1ccccc1)C1CC[NH+](C)CC1,O,0,0,8.8,['8.8'],['chembl25']
1982,CN(C(=O)N1CC(c2cc(F)ccc2F)=C[C@@]1(CO)c1ccccc1)C1CC[NH+](C2CC2)CC1,O,0,0,7.5,['7.5'],['chembl25']
1983,CN(C(=O)N1CC(c2cc(F)ccc2F)=C[C@@]1(CO)c1ccccc1)C1CC[NH+](CC2CC2)CC1,O,0,0,9.1,['9.1'],['chembl25']
1984,CN(C(=O)N1CC(c2cc(F)ccc2F)=C[C@@]1(CO)c1ccccc1)C1CC[NH+](CCF)CC1,O,0,0,7.6,['7.6'],['chembl25']
1985,CN(C(=O)N1CC(c2cc(F)ccc2F)=C[C@@]1(CO)c1ccccc1)C1CC[NH2+]CC1,O,0,0,9.8,['9.8'],['chembl25']
1986,CN(C(=O)N1CC(c2cc(F)ccc2F)=C[C@@]1(CO)c1ccccc1)[C@H]1CC[NH+](C)C[C@@H]1F,O,0,0,6.6,['6.6'],['chembl25']
1987,CN(C(=O)N1CC(c2cc(F)ccc2F)=C[C@@]1(CO)c1ccccc1)[C@H]1CC[NH+](C)C[C@H]1F,O,0,0,7.6,['7.6'],['chembl25']
1988,CN(C(=O)c1ccccc1)c1cccnc1,O,0,0,3.66,['3.66'],['datawarrior']
1989,CN(C(=O)c1ccccc1)c1ccncc1,O,0,0,4.68,['4.68'],['datawarrior']
1990,CN(C)/C=[NH+]/c1ccc(Br)cc1,O,0,0,8.1,['8.1'],['datawarrior']
1991,CN(C)/C=[NH+]/c1ccc(Cl)cc1,O,0,0,8.46,['8.46'],['datawarrior']
1992,CN(C)/C=[NH+]/c1ccc(O)cc1,O,0,0,9.41,['9.41'],['datawarrior']
1993,CN(C)/C=[NH+]/c1cccc(Br)c1,O,0,0,8.08,['8.08'],['datawarrior']
1994,CN(C)/C=[NH+]/c1cccc(Cl)c1,O,0,0,7.97,['7.97'],['datawarrior']
1995,CN(C)/C=[NH+]/c1ccccc1,O,0,0,9.0,['9.0'],['datawarrior']
1996,CN(C)/C=[NH+]/c1ccccc1Br,O,0,0,6.71,['6.71'],['datawarrior']
1997,CN(C)/C=[NH+]/c1ccccc1Cl,O,0,0,6.85,['6.85'],['datawarrior']
1998,CN(C)C(=O)C(CC[NH+]1CCC(O)(c2ccc(Cl)cc2)CC1)(c1ccccc1)c1ccccc1,O,0,0,8.855,['8.855'],['chembl25']
1999,CN(C)C(=O)CS,O,0,0,8.1,['8.1'],['datawarrior']
2000,CN(C)C(=O)Cn1c(-c2ccccc2)c(C2CCCCC2)c2ccc(-c3noc(=O)[nH]3)cc21,O,0,0,4.8,['4.8'],['chembl25']
2001,CN(C)C(=O)Cn1c(-c2ccccc2)c(C2CCCCC2)c2ccc(C(=O)[O-])cc21,O,0,0,4.8,['4.8'],['chembl25']
2002,CN(C)C(=O)N1CC(c2cc(F)ccc2F)=C[C@@]1(CCCNCC(F)(F)F)c1ccccc1,O,0,0,5.2,['5.2'],['chembl25']
2003,CN(C)C(=O)N1CC(c2cc(F)ccc2F)=C[C@@]1(CCCNCC(F)F)c1ccccc1,O,0,0,7.0,['7.0'],['chembl25']
2004,CN(C)C(=O)N1CC(c2cc(F)ccc2F)=C[C@@]1(CCC[NH2+]CCF)c1ccccc1,O,0,0,8.8,['8.8'],['chembl25']
2005,CN(C)C(=O)N1CC(c2cc(F)ccc2F)=C[C@@]1(CCC[NH3+])c1ccccc1,O,0,0,10.3,['10.3'],['chembl25']
2006,CN(C)C(=O)N1N=C(c2cc(F)ccc2F)C[C@@]1(CCC[NH3+])c1ccccc1,O,0,0,10.3,['10.3'],['chembl25']
2007,CN(C)C(=O)OCC(=O)[O-],O,0,0,3.01,['3.01'],['datawarrior']
2008,CN(C)C(=O)OCC1C2c3ccccc3C(c3ccccc32)C1C[NH+](C)C,O,0,0,8.99,['8.99'],['chembl25']
2009,CN(C)C(=O)n1nc(C(C)(C)C)nc1SCC(=O)[O-],O,0,0,3.49,['3.49'],['datawarrior']
2010,CN(C)C(=S)NCC(=O)[O-],O,0,0,3.71,['3.71'],['datawarrior']
2011,CN(C)C(=S)OCC(=O)[O-],O,0,0,2.87,['2.87'],['datawarrior']
2012,CN(C)C(=S)SCC(=O)[O-],O,0,0,3.34,['3.34'],['datawarrior']
2013,CN(C)CC#N,O,0,0,4.5,['4.5'],['datawarrior']
2014,CN(C)CC(F)(F)F,O,0,0,4.8,['4.8'],['chembl25']
2015,CN(C)CCC#N,O,0,0,7.01,['7.01'],['datawarrior']
2016,CN(C)N,O,0,0,7.16,['7.16'],['datawarrior']
2017,CN(C)N(C)C,O,0,0,6.19,['6.19'],['datawarrior']
2018,CN(C)S(=O)(=O)NC(=O)CCc1ccccc1,O,0,0,5.86,['5.86'],['chembl25']
2019,CN(C)[C@H]1CCC[C@@H]1C#N,O,0,0,7.02,['7.02'],['datawarrior']
2020,CN(C)[O-],O,0,0,5.2,['5.2'],['datawarrior']
2021,CN(C)c1cc[n+]([O-])cc1,O,0,0,3.9,['3.9'],['datawarrior']
2022,CN(C)c1cc[nH+]c(N2CCc3ccccc3C2)c1,O,0,0,8.8,['8.8'],['chembl25']
2023,CN(C)c1cc[nH+]cc1,O,0,0,9.7,['9.7'],['datawarrior']
2024,CN(C)c1ccc(/C=C/c2cc[n+]([O-])cc2)cc1,O,0,0,4.3,['4.3'],['datawarrior']
2025,CN(C)c1ccc(/C=C/c2nnnn2-c2ccccc2)cc1,O,0,0,3.47,['3.47'],['datawarrior']
2026,CN(C)c1ccc(/N=N/c2ccccc2)cc1,O,0,0,2.85,['2.85'],['datawarrior']
2027,CN(C)c1ccc(/N=N/c2ccccn2)cc1,O,0,0,3.25,['3.25'],['datawarrior']
2028,CN(C)c1ccc(Br)cc1,O,0,0,4.25,['4.25'],['datawarrior']
2029,CN(C)c1ccc(Cl)cc1,O,0,0,4.39,['4.39'],['datawarrior']
2030,CN(C)c1ccc(N2CCOCC2)cc1,O,0,0,5.7,['5.7'],['datawarrior']
2031,CN(C)c1ccc(N=O)cc1,O,0,0,4.54,['4.54'],['datawarrior']
2032,CN(C)c1ccc(NC(=O)CN=O)cc1,O,0,0,4.94,['4.94'],['datawarrior']
2033,CN(C)c1ccc(SC#N)cc1,O,0,0,3.3,['3.3'],['datawarrior']
2034,CN(C)c1ccc([N+](C)(C)C)cc1,O,0,0,2.64,['2.64'],['datawarrior']
2035,CN(C)c1ccc2cc3c(ccc4ccccc43)nc2c1,O,0,0,7.31,['7.31'],['datawarrior']
2036,CN(C)c1ccc2ccccc2c1,O,0,0,4.57,['4.57'],['datawarrior']
2037,CN(C)c1cccc(C#N)c1,O,0,0,2.97,['2.97'],['datawarrior']
2038,CN(C)c1cccc(Cl)c1,O,0,0,3.83,['3.83'],['datawarrior']
2039,CN(C)c1cccc([N+](C)(C)C)c1,O,0,0,2.6,['2.6'],['datawarrior']
2040,CN(C)c1cccc2ccccc12,O,0,0,4.83,['4.83'],['datawarrior']
2041,CN(C)c1ccccc1,O,0,0,5.1,['5.1'],['datawarrior']
2042,CN(C)c1ccccc1C(=O)[O-],O,0,0,8.46,['8.46'],['datawarrior']
2043,CN(C)c1cccnc1,O,0,0,6.67,['6.67'],['datawarrior']
2044,CN(C)c1ccncn1,O,0,0,6.35,['6.35'],['datawarrior']
2045,CN(C)c1nc(NN=O)nn1C,O,0,0,5.94,['5.94'],['datawarrior']
2046,CN(C)c1nc2c(s1)CCCC2,O,0,0,6.16,['6.16'],['datawarrior']
2047,CN(C)c1nc2cc3c(cc2[nH]1)CCCC3,O,0,0,7.65,['7.65'],['datawarrior']
2048,CN(C)c1ncc(-c2ccccc2)s1,O,0,0,4.89,['4.89'],['datawarrior']
2049,CN(C)c1ncc(Br)s1,O,0,0,3.66,['3.66'],['datawarrior']
2050,CN(C)c1ncccn1,O,0,0,3.96,['3.96'],['datawarrior']
2051,CN(C)c1ncnc2c1cnn2C,O,0,0,4.06,['4.06'],['datawarrior']
2052,CN(C)c1ncnc2c1ncn2[C@H]1O[C@@H](CO)[C@H](O)[C@@H]1O,O,0,0,3.65,['3.65'],['datawarrior']
2053,CN(C)c1nn[n-]n1,O,0,0,5.92,['5.92'],['datawarrior']
2054,CN(C)c1noc(C2=CCC[NH+](C)C2)n1,O,0,0,7.24,['7.24'],['chembl25']
2055,CN(C)c1noc(C2=CCC[NH2+]C2)n1,O,0,0,8.58,['8.58'],['chembl25']
2056,CN(C1=[NH+]CCN1)c1c(Br)cccc1Br,O,0,0,10.7,['10.7'],['chembl25']
2057,CN(C1=[NH+]CCO1)c1ccccc1,O,0,0,8.51,['8.51'],['datawarrior']
2058,CN(CCC#N)CCC#N,O,0,0,4.24,['4.24'],['datawarrior']
2059,CN(CCC[NH+](C)C)C(=O)CN=O,O,0,0,9.255,['9.255'],['datawarrior']
2060,CN(CCO)c1ccccc1,O,0,0,4.89,['4.89'],['datawarrior']
2061,CN(CCc1ccccc1)c1ncnc2c1ncn2C1O[C@H](CO)[C@@H](O)[C@H]1O,O,0,0,3.0,['3.0'],['chembl25']
2062,CN(O)C(=O)C(C)(C)C,O,0,0,9.94,['9.94'],['datawarrior']
2063,CN(O)C(=O)c1ccccc1,O,0,0,8.07,['8.07'],['datawarrior']
2064,CN(O)C(N)=O,O,0,0,9.95,['9.95'],['chembl25']
2065,CN([O-])Cc1ccccc1,O,0,0,4.6,['4.6'],['datawarrior']
2066,CN(c1ccc(Nc2c3ccccc3nc3ccccc23)cc1)S(C)(=O)=O,O,0,0,6.95,['6.95'],['chembl25']
2067,CN(c1ccccc1)C(C)(C)C,O,0,0,7.5,['7.5'],['datawarrior']
2068,CN(c1ccccc1)C1CCCC1,O,0,0,6.71,['6.71'],['datawarrior']
2069,CN(c1ccccc1)C1CCCCC1,O,0,0,6.35,['6.35'],['datawarrior']
2070,CN(c1ccccc1Nc1c2ccccc2nc2ccccc12)S(C)(=O)=O,O,0,0,6.97,['6.97'],['chembl25']
2071,CN1C(=O)C(C)(C)NC1=S,O,0,0,10.8,['10.8'],['datawarrior']
2072,CN1C(=O)C(C)(c2cccc(NC(=O)c3ccc(Cl)cn3)c2)[NH+]=C1N,O,0,0,7.3,['7.3'],['chembl25']
2073,CN1C(=O)C(c2ccccc2)(c2ccccc2)[NH+]=C1N,O,0,0,5.7,['5.7'],['chembl25']
2074,CN1C(=O)C2(CCCCC2)NC1=S,O,0,0,11.23,['11.23'],['datawarrior']
2075,CN1C(=O)CC[C@H]1c1cccnc1,O,0,0,4.5,['4.5'],['chembl25']
2076,CN1C(=O)C[C@@](C)(c2cccc(NC(=O)c3ccc(Cl)cn3)c2)[NH+]=C1N,O,0,0,8.4,['8.4'],['chembl25']
2077,CN1C(=O)N(CC[NH+]2CCOCC2)C(=O)C(C)(C2=CCCCC2)C1=O,O,0,0,5.75,['5.75'],['datawarrior']
2078,CN1C(=O)NC(=O)C(C)(C2=CCCCC2)C1=O,O,0,0,7.83,['7.83'],['chembl25']
2079,CN1C(=O)[C@]2([NH+]=C1N)c1cc(-c3cccnc3F)ccc1O[C@H]1CCOC[C@@H]12,O,0,0,5.8,['5.8'],['chembl25']
2080,CN1C(=S)NC(=O)C12CCCCC2,O,0,0,9.25,['9.25'],['datawarrior']
2081,CN1C(=[NH2+])C(C)(C)c2ccccc21,O,0,0,9.25,['9.25'],['datawarrior']
2082,CN1C2CCC(C2)N1C,O,0,0,6.89,['6.89'],['datawarrior']
2083,CN1C2CCC(CC2)N1C,O,0,0,7.14,['7.14'],['datawarrior']
2084,CN1CC(=O)NC1=O,O,0,0,11.4,['11.4'],['datawarrior']
2085,CN1CC(C(=O)Nc2ccc(Cl)cc2)=C(O)C1=O,O,0,0,5.51,['5.51'],['chembl25']
2086,CN1CC(C(=O)Nc2ccc(F)cc2)=C(O)C1=O,O,0,0,5.55,['5.55'],['chembl25']
2087,CN1CC(C(=O)Nc2ccccc2)=C(O)C1=O,O,0,0,5.86,['5.86'],['chembl25']
2088,CN1CC(C)(c2cccc(NC(=O)c3ccc(Cl)cn3)c2)[NH+]=C(N)C1=O,O,0,0,7.6,['7.6'],['chembl25']
2089,CN1CC(N)=[NH+]C(C)(c2cccc(NC(=O)c3ccc(Cl)cn3)c2)C1=O,O,0,0,7.8,['7.8'],['chembl25']
2090,CN1CC(O)c2cc(N=O)c(O)cc21,O,0,0,8.6,['8.6'],['datawarrior']
2091,CN1CC=CCN1C,O,0,0,5.7,['5.7'],['datawarrior']
2092,CN1CCC(=O)NC1=O,O,0,0,11.86,['11.86'],['datawarrior']
2093,CN1CCC=C(C#N)C1,O,0,0,6.35,['6.35'],['datawarrior']
2094,CN1CCCC/C1=[NH+]\c1ccc2c(c1)[C@@H](NC(=O)c1ccc(Br)cc1)[C@H](O)C2,O,0,0,9.9,['9.9'],['chembl25']
2095,CN1CCCC2CC[NH+]=C21,O,0,0,11.5,['11.5'],['datawarrior']
2096,CN1CCCCCN1C,O,0,0,6.66,['6.66'],['datawarrior']
2097,CN1CCCCN1C,O,0,0,6.66,['6.66'],['datawarrior']
2098,CN1CCCN1C,O,0,0,6.67,['6.67'],['datawarrior']
2099,CN1CC[NH+](C)C(c2nc(N)no2)C1,O,0,0,6.0,['6.0'],['chembl25']
2100,CN1CC[NH+](C)c2cccc3cccc1c23,O,0,0,4.62,['4.62'],['datawarrior']
2101,CN1CC[NH+](CC(=O)N2c3ccccc3C(=O)Nc3cccnc32)CC1,O,0,0,8.1,['8.1'],['chembl25']
2102,CN1CC[NH+](Cc2ccc(OC3CN(C(=O)c4nnc(-c5ccccc5)o4)C3)cc2F)CC1,O,0,0,8.4,['8.4'],['chembl25']
2103,CN1CC[NH2+]C(c2nc(N)no2)C1,O,0,0,6.2,['6.2'],['chembl25']
2104,CN1CCc2cccc(c2)CCc2ccc1cc2,O,0,0,6.76,['6.76'],['datawarrior']
2105,CN1Cc2c(ccc3c2OCO3)-c2ccc3cc4c(cc3c21)OCO4,O,0,0,2.6,['2.6'],['datawarrior']
2106,CN1Cc2cc(-c3ccc(C[C@@H](C#N)NC(=O)[C@@H]4CCCC[NH2+]4)cc3)ccc2C1=O,O,0,0,7.1,['7.1'],['chembl25']
2107,CN1c2ccccc2Nc2c(O)cccc21,O,0,0,9.26,['9.26'],['datawarrior']
2108,CN1c2ccccc2Nc2ccc(O)cc21,O,0,0,10.1,['10.1'],['datawarrior']
2109,CN=C1C(C)(C)c2ccccc2C1(C)C,O,0,0,7.0,['7.0'],['datawarrior']
2110,CN=C1CCCCC1,O,0,0,9.43,['9.43'],['datawarrior']
2111,CNC(=O)/C=C(/C)C(=O)[O-],O,0,0,3.23,['3.23'],['datawarrior']
2112,CNC(=O)/C=C(\c1ccc2nc(N)n(C(C)C)c2c1)c1cccc(F)c1F,O,0,0,6.69,['6.69'],['datawarrior']
2113,CNC(=O)/C=C(\c1ccc2nc(N)n(C3CCCC3)c2c1)c1ccccc1F,O,0,0,6.7,['6.7'],['datawarrior']
2114,CNC(=O)/C=C\C(=O)[O-],O,0,0,3.98,['3.98'],['datawarrior']
2115,CNC(=O)C(CC[NH+]1CCC(O)(c2ccc(Cl)cc2)CC1)(c1ccccc1)c1ccccc1,O,0,0,7.2,['7.2'],['chembl25']
2116,CNC(=O)C1CCCC[NH2+]1,O,0,0,8.8,['8.8'],['datawarrior']
2117,CNC(=O)CNC(=O)c1[nH]ccc(=O)c1[O-],O,0,0,6.3,['6.3'],['chembl25']
2118,CNC(=O)CS,O,0,0,8.05,['8.05'],['datawarrior']
2119,CNC(=O)CS(=O)(=O)NC(N)=O,O,0,0,4.89,['4.89'],['datawarrior']
2120,CNC(=O)C[NH2+]C,O,0,0,8.28,['8.28'],['datawarrior']
2121,CNC(=O)Nc1ccc(Cc2c3ccccc3nc3ccccc23)cc1,O,0,0,7.77,['7.77'],['chembl25']
2122,CNC(=O)Nc1ccc(Nc2c3ccccc3nc3ccccc23)cc1,O,0,0,7.77,['7.77'],['chembl25']
2123,CNC(=O)O[C@H]1CCc2ccc(N3CC[NH+](C4COC4)CC3)cc2[C@@H]1NC(=O)c1ccc(F)cc1,O,0,0,5.0,['5.0'],['chembl25']
2124,CNC(=O)O[C@H]1COc2ccc(N3CC[NH+](C4COC4)CC3)cc2[C@@H]1NC(=O)c1ccc(F)cc1,O,0,0,5.11,['5.11'],['chembl25']
2125,CNC(=O)Oc1ccc2c(c1)[C@@]1(C)CC[NH+](C)[C@H]1N2C,O,0,0,6.12,['6.12'],['datawarrior']
2126,CNC(=O)Oc1ccc2c(c1)[C@]1(C)CC[NH+](C)[C@@H]1N2C,O,0,0,7.9,['7.9'],['chembl25']
2127,CNC(=O)[C@H](C)NC(=O)c1[nH]ccc(=O)c1[O-],O,0,0,6.0,['6.0'],['chembl25']
2128,CNC(=O)[C@H](Cc1ccccc1)NC(=O)c1[nH]ccc(=O)c1[O-],O,0,0,6.1,['6.1'],['chembl25']
2129,CNC(=O)c1cc(NCc2c(C)cccc2C)c2[nH]c(C)c(Br)c2[nH+]1,O,0,0,7.39,['7.39'],['chembl25']
2130,CNC(=O)c1cc(NCc2c(C)cccc2C)c2[nH]c(C)cc2[nH+]1,O,0,0,7.33,['7.33'],['chembl25']
2131,CNC(=O)c1cc(N[C@H]2c3ccccc3C[C@@H]2O)c2nc(C)c(C)n2c1,O,0,0,5.97,['5.97'],['chembl25']
2132,CNC(=O)c1cc2c(nc(C)n2C)c2c1CC[C@@H](c1ccc(Cl)cc1C)O2,O,0,0,5.6,['5.6'],['chembl25']
2133,CNC(=O)c1cc2cc(S(N)(=O)=O)sc2s1,O,0,0,5.2,['5.2'],['chembl25']
2134,CNC(=O)c1ccc2c(c1)[C@@H]([NH2+]C)CC[C@H]2c1ccc(Cl)c(Cl)c1,O,0,0,8.8,['8.8'],['chembl25']
2135,CNC(=O)c1ccccc1O,O,0,0,8.03,['8.03'],['datawarrior']
2136,CNC(=O)c1ccncc1,O,0,0,3.8,['3.8'],['datawarrior']
2137,CNC(=O)c1cn2c(C)c(C)nc2c2c1CCC(c1ccccc1)O2,O,0,0,6.74,['6.74'],['chembl25']
2138,CNC(=O)c1cn2c(C)c(C)nc2c2c1CCC1(CCc3ccccc31)O2,O,0,0,6.8,['6.8'],['chembl25']
2139,CNC(=O)c1nc(-c2nc(-c3c[nH+]c4ccccn34)c(C)nc2N)n(C)n1,O,0,0,6.2,['6.2'],['chembl25']
2140,CNC(=S)N(C)CCNc1c2ccccc2[nH+]c2ccccc12,O,0,0,9.0,['9.0'],['chembl25']
2141,CNC(=S)NCCSCc1nc[nH]c1C,O,0,0,6.8,['6.8'],['chembl25']
2142,CNC(=S)OC(C)C,O,0,0,11.56,['11.56'],['datawarrior']
2143,CNC1=[NH+]c2ccc(Cl)cc2C(c2ccccc2)=[N+]([O-])C1,O,0,0,4.8,['4.8'],['chembl25']
2144,CNCC#N,O,0,0,5.26,['5.26'],['datawarrior']
2145,CNCC(F)(F)F,O,0,0,6.0,['6.0'],['chembl25']
2146,CNCCC#N,O,0,0,8.1,['8.1'],['datawarrior']
2147,CNCCS(=O)(=O)CC[C@@H]1OCC[C@@]2(S(=O)(=O)c3ccc(Cl)cc3)c3c(F)ccc(F)c3OC[C@@H]12,O,0,0,7.7,['7.7'],['chembl25']
2148,CNN,O,0,0,7.87,['7.87'],['datawarrior']
2149,CNN(C)C,O,0,0,6.64,['6.64'],['datawarrior']
2150,CNNC,O,0,0,5.2,['5.2'],['datawarrior']
2151,CNOC,O,0,0,4.75,['4.75'],['datawarrior']
2152,CNS(=O)(=O)C(F)(F)F,O,0,0,7.56,['7.56'],['datawarrior']
2153,CNS(=O)(=O)Nc1cccc(Cc2c(C)c3ccc(Oc4ncccn4)cc3oc2=O)c1F,O,0,0,8.86,['8.86'],['chembl25']
2154,CNS(=O)(=O)c1ccc(C(F)(F)F)cc1,O,0,0,10.7,['10.7'],['chembl25']
2155,CNS(=O)(=O)c1ccc(Cl)cc1,O,0,0,10.96,['10.96'],['chembl25']
2156,CN[O-],O,0,0,6.05,['6.05'],['datawarrior']
2157,CNc1[nH]c(=O)[n+]([C@@H]2C[C@@H](O)[C@H](CO)O2)cc1C,O,0,0,4.04,['4.04'],['datawarrior']
2158,CNc1c(C)cccc1C,O,0,0,6.12,['6.12'],['datawarrior']
2159,CNc1c[nH+]ccc1N,O,0,0,9.14,['9.14'],['datawarrior']
2160,CNc1cc[n+](C)c(=O)[nH]1,O,0,0,4.47,['4.47'],['datawarrior']
2161,CNc1cc[n+]([O-])cc1,O,0,0,3.85,['3.85'],['datawarrior']
2162,CNc1cc[nH+]c(N2CCc3ccccc3C2)c1,O,0,0,8.85,['8.85'],['chembl25']
2163,CNc1ccc(C)cc1,O,0,0,5.36,['5.36'],['datawarrior']
2164,CNc1ccc(OC)cc1,O,0,0,5.93,['5.93'],['datawarrior']
2165,CNc1cccc(C)c1,O,0,0,4.94,['4.94'],['datawarrior']
2166,CNc1cccc2ccccc12,O,0,0,3.7,['3.7'],['datawarrior']
2167,CNc1ccccc1,O,0,0,4.8,['4.8'],['datawarrior']
2168,CNc1ccccc1C,O,0,0,4.59,['4.59'],['datawarrior']
2169,CNc1ccccn1,O,0,0,7.13,['7.13'],['datawarrior']
2170,CNc1cccnc1,O,0,0,6.41,['6.41'],['datawarrior']
2171,CNc1ccncn1,O,0,0,6.12,['6.12'],['datawarrior']
2172,CNc1cnc2ccccc2n1,O,0,0,4.1,['4.1'],['datawarrior']
2173,CNc1nc(C(F)(F)c2ccccc2)nc2c1CC[NH2+]CC2,O,0,0,8.7,['8.7'],['chembl25']
2174,CNc1nc(C)nc2c1cnn2C,O,0,0,5.0,['5.0'],['datawarrior']
2175,CNc1ncccn1,O,0,0,3.82,['3.82'],['datawarrior']
2176,CNc1nccn2cc(-c3ccc(S(C)=O)cc3OC)[nH+]c12,O,0,0,5.36,['5.36'],['datawarrior']
2177,CNc1ncnc2c1ccn2Cc1ccccc1F,O,0,0,5.56,['5.56'],['chembl25']
2178,CNc1ncnc2c1cnn2C,O,0,0,4.24,['4.24'],['datawarrior']
2179,CNc1ncnc2c1cnn2Cc1ccccc1F,O,0,0,4.4,['4.4'],['chembl25']
2180,CNc1ncnc2c1ncn2Cc1ccccc1F,O,0,0,3.88,['3.88'],['chembl25']
2181,CNc1nn[n-]n1,O,0,0,6.06,['6.06'],['datawarrior']
2182,CNc1nnc(S(N)(=O)=O)s1,O,0,0,7.8,['7.8'],['datawarrior']
2183,CO/C(C)=C\C(=O)[O-],O,0,0,5.81,['5.81'],['datawarrior']
2184,CO/N=C(\C#N)C1=CCC[NH+](C)C1,O,0,0,7.65,['7.65'],['chembl25']
2185,CO/N=C(\C#N)C1=CCC[NH2+]C1,O,0,0,8.6,['8.6'],['chembl25']
2186,CO/N=C(\C#N)C1C[NH+]2CCC1CC2,O,0,0,8.96,['8.96'],['chembl25']
2187,CO/N=C(\C(=O)N=C1C(=O)N2C(C(=O)[O-])C(COC(C)=O)CS[C@H]12)c1csc(N)n1,O,0,0,3.75,['3.75'],['chembl25']
2188,CO/N=C(\F)C1=CCC[NH+](C)C1,O,0,0,7.39,['7.39'],['chembl25']
2189,COC(=O)/C=C(/C)O,O,0,0,9.48,['9.48'],['datawarrior']
2190,COC(=O)C(CCCC[NH3+])NC(=O)OC(C)(C)C,O,0,0,10.79,['10.79'],['chembl25']
2191,COC(=O)C([NH3+])CCCCNC(=O)OC(C)(C)C,O,0,0,8.9,['8.9'],['chembl25']
2192,COC(=O)C([NH3+])Cc1ccccc1,O,0,0,7.0,['7.0'],['datawarrior']
2193,COC(=O)C(c1ccccc1)C1CCCC[NH2+]1,O,0,0,9.24,['9.24'],['chembl25']
2194,COC(=O)C1=CCC[NH+](C)C1,O,0,0,7.675,['7.675'],"['datawarrior', 'chembl25']"
2195,COC(=O)C1=CCC[NH2+]C1,O,0,0,8.7,['8.7'],"['datawarrior', 'chembl25']"
2196,COC(=O)C1C(C[NH+]2CCOC[C@H]2C(=O)[O-])=NC(c2nccs2)=N[C@H]1c1ccc(F)c(F)c1C,O,0,0,5.7,['5.7'],['chembl25']
2197,COC(=O)C1C(C[NH+]2CCOC[C@H]2C(=O)[O-])=NC(c2nccs2)=N[C@H]1c1ccc(F)cc1Cl,O,0,0,5.8,['5.8'],['chembl25']
2198,COC(=O)C1CCC[NH+](C)C1,O,0,0,8.45,['8.45'],['datawarrior']
2199,COC(=O)C1C[NH+]2CCC1CC2,O,0,0,9.4,['9.4'],['datawarrior']
2200,COC(=O)C1c2ccccc2-c2ccccc21,O,0,0,11.52,['11.52'],['datawarrior']
2201,COC(=O)C=C(C)O,O,0,0,10.6,['10.6'],['datawarrior']
2202,COC(=O)CC1c2ccc(Cl)cc2NC(=O)C1C#N,O,0,0,10.2,['10.2'],['chembl25']
2203,COC(=O)CC1c2ccc(Cl)cc2NC(=O)C1S(=O)(=O)c1ccccc1,O,0,0,10.8,['10.8'],['chembl25']
2204,COC(=O)CCCc1cnc[nH]1,O,0,0,7.33,['7.33'],['datawarrior']
2205,COC(=O)CCS,O,0,0,9.33,['9.33'],['datawarrior']
2206,COC(=O)CCc1ccc(OCC(O)C[NH2+]C(C)C)cc1,O,0,0,9.5,['9.5'],['chembl25']
2207,COC(=O)CS,O,0,0,7.57,['7.57'],['datawarrior']
2208,COC(=O)C[C@@H]1[C@@H](C(=O)[O-])[NH2+]C[C@H]1C(C)O,O,0,0,9.41,['9.41'],['datawarrior']
2209,COC(=O)C[NH3+],O,0,0,7.685,['7.685'],"['datawarrior', 'chembl25']"
2210,COC(=O)Cc1ccccc1N,O,0,0,3.71,['3.71'],['datawarrior']
2211,COC(=O)Cc1csc(=N)n1C,O,0,0,9.77,['9.77'],['chembl25']
2212,COC(=O)Cc1csc(N)n1,O,0,0,4.83,['4.83'],['chembl25']
2213,COC(=O)Cn1ccnc1,O,0,0,7.1,['7.1'],['chembl25']
2214,COC(=O)N(C)CC(=O)Oc1ccc(N(C)C)cc1,O,0,0,5.03,['5.03'],['chembl25']
2215,COC(=O)N1CCc2c(o[nH]c2=O)C1,O,0,0,5.3,['5.3'],['chembl25']
2216,COC(=O)N1CCc2c(s[nH]c2=O)C1,O,0,0,7.3,['7.3'],['chembl25']
2217,COC(=O)N1CCc2s[nH]c(=O)c2C1,O,0,0,7.4,['7.4'],['chembl25']
2218,COC(=O)N1CCc2s[nH]c(=O)c2CC1,O,0,0,7.6,['7.6'],['chembl25']
2219,COC(=O)Nc1ccc(Cc2c3ccccc3nc3ccccc23)cc1,O,0,0,7.64,['7.64'],['chembl25']
2220,COC(=O)Nc1ccc(Nc2c3ccccc3nc3ccccc23)cc1,O,0,0,7.64,['7.64'],['chembl25']
2221,COC(=O)Nc1ccccc1Nc1c2ccccc2nc2ccccc12,O,0,0,7.24,['7.24'],['chembl25']