,Solute SMILES,Solvent SMILES,Solute CAS,Solute IUPAC,pKa (avg),pKa (all),Source
2222,COC(=O)Nc1nc2nc(C)ncc2cc1-c1c(Cl)cccc1Cl,O,0,0,4.2,['4.2'],['chembl25']
2223,COC(=O)[C@@H]1CSC[NH2+]1,O,0,0,3.92,['3.92'],['datawarrior']
2224,COC(=O)[C@@H]1[C@@H](O)C[C@H]2CC[C@@H]1[NH+]2C,O,0,0,8.21,['8.21'],['datawarrior']
2225,COC(=O)[C@@H]1[C@H](O)CC[C@@H]2C[n+]3ccc4c([nH]c5ccccc54)c3C[C@H]21,O,0,0,10.69,['10.69'],['datawarrior']
2226,COC(=O)[C@@H]1[C@H](O)C[C@@H]2CC[C@H]1[NH+]2C,O,0,0,8.85,['8.85'],['datawarrior']
2227,COC(=O)[C@@H]1[C@H](OC(=O)c2ccccc2)C[C@@H]2CC[C@H]1[NH+]2C,O,0,0,8.63,['8.63'],['datawarrior']
2228,COC(=O)[C@H](Cc1cnc[nH]1)NC(C)=O,O,0,0,6.3,['6.3'],['datawarrior']
2229,COC(=O)[C@H](NC(=O)Cc1ccccc1)[C@@H]1SC(C)(C)[C@H]2C(=O)NC(=S)N12,O,0,0,8.0,['8.0'],['datawarrior']
2230,COC(=O)[C@H]1[C@@H](OC(=O)c2ccccc2)C[C@@H]2CC[C@H]1[NH+]2C,O,0,0,8.7,['8.7'],['chembl25']
2231,COC(=O)[C@H]1[C@H]2C[C@@H]3c4[nH]c5cc(OC)ccc5c4CC[NH+]3C[C@H]2C[C@@H](OC(=O)c2cc(OC)c(OC)c(OC)c2)[C@@H]1OC,O,0,0,6.925,['6.925'],['chembl25']
2232,COC(=O)c1c2ccccc2nc2ccccc12,O,0,0,3.45,['3.45'],['datawarrior']
2233,COC(=O)c1cc(Br)c(=O)n(N)c1,O,0,0,2.4,['2.4'],['datawarrior']
2234,COC(=O)c1cc(S(N)(=O)=O)ccc1S(=O)(=O)CCCO,O,0,0,8.9,['8.9'],['chembl25']
2235,COC(=O)c1cc(S(N)(=O)=O)ccc1S(=O)(=O)CCO,O,0,0,9.2,['9.2'],['chembl25']
2236,COC(=O)c1cc(S(N)(=O)=O)ccc1SCCCO,O,0,0,9.3,['9.3'],['chembl25']
2237,COC(=O)c1ccc(N(C)C)cc1,O,0,0,2.61,['2.61'],['datawarrior']
2238,COC(=O)c1ccc(N)cc1,O,0,0,2.45,['2.45'],"['datawarrior', 'chembl25']"
2239,COC(=O)c1ccc(NC=S)cc1,O,0,0,10.95,['10.95'],['datawarrior']
2240,COC(=O)c1ccc(Nc2c3ccccc3nc3ccccc23)cc1,O,0,0,6.21,['6.21'],['chembl25']
2241,COC(=O)c1ccc(O)cc1,O,0,0,8.42,['8.42'],"['datawarrior', 'chembl25']"
2242,COC(=O)c1ccc(OS(N)(=O)=O)cc1,O,0,0,8.28,['8.28'],['chembl25']
2243,COC(=O)c1ccc2ncccc2c1,O,0,0,3.8,['3.8'],['datawarrior']
2244,COC(=O)c1cccc(N)c1,O,0,0,3.55,['3.55'],['datawarrior']
2245,COC(=O)c1cccc(NC=S)c1,O,0,0,10.81,['10.81'],['datawarrior']
2246,COC(=O)c1ccccc1Nc1c2ccccc2nc2ccccc12,O,0,0,6.3,['6.3'],['chembl25']
2247,COC(=O)c1ccccc1O,O,0,0,10.25,['10.25'],"['datawarrior', 'chembl25']"
2248,COC(=O)c1ccccc1[S-],O,0,0,6.3,['6.3'],['datawarrior']
2249,COC(=O)c1cccnc1,O,0,0,3.535,['3.535'],"['datawarrior', 'chembl25']"
2250,COC(=O)c1ccncc1,O,0,0,3.38,['3.38'],['datawarrior']
2251,COC(=O)c1nc2c(N[C@H](C)CO)nc(SCc3cccc(F)c3F)nc2[nH]c1=O,O,0,0,6.6,['6.6'],['chembl25']
2252,COC(=S)C1c2ccccc2-c2ccccc21,O,0,0,7.4,['7.4'],['datawarrior']
2253,COC(N)=[NH2+],O,0,0,9.72,['9.72'],['datawarrior']
2254,COC1=C(O)C(=O)O[C@@H]1[C@@H](O)CO,O,0,0,7.54,['7.54'],['chembl25']
2255,COC1=CC2CCC1(C(=O)[O-])CC2,O,0,0,4.45,['4.45'],['datawarrior']
2256,COC1=CC=C2[C@@H]3Cc4ccc(OC)c5c4[C@]2(CC[NH+]3C)[C@@H]1O5,O,0,0,8.15,['8.15'],['datawarrior']
2257,COC1CC2CC[NH+]1CC2,O,0,0,8.87,['8.87'],['datawarrior']
2258,COC1CCN(C(=O)c2cc3cc(OC4CC[NH+](C(C)C)CC4)ccc3[nH]2)CC1,O,0,0,9.9,['9.9'],['chembl25']
2259,COC1CCN(C(=O)c2ccc3cc(OC4CC[NH+](C(C)C)CC4)ccc3c2)CC1,O,0,0,9.4,['9.4'],['chembl25']
2260,COC1CCN(C(=O)c2ccc3cc(OC4CC[NH+](C(C)C)CC4)ccc3n2)CC1,O,0,0,9.5,['9.5'],['chembl25']
2261,COC1CCN(C(=O)c2ccc3cc(OCCC[NH+]4CCCCC4)ccc3c2)CC1,O,0,0,9.57,['9.57'],['chembl25']
2262,COC1CCN(S(=O)(=O)c2ccc(S(N)(=O)=O)c(C(F)(F)F)c2)CC1,O,0,0,8.12,['8.12'],['chembl25']
2263,COC1CCN(S(=O)(=O)c2ccc(S(N)(=O)=O)c(Cl)c2)CC1,O,0,0,8.76,['8.76'],['chembl25']
2264,COC1CCN(S(=O)(=O)c2ccc(S(N)(=O)=O)cc2)CC1,O,0,0,9.42,['9.42'],['chembl25']
2265,COC1CN(C(=O)c2cc3c(nc(C)n3C)c3c2CC[C@@H](c2ccc(Cl)cc2C)O3)C1,O,0,0,5.48,['5.48'],['chembl25']
2266,COCC(=O)OCCCS(=O)(=O)c1ccc(S(N)(=O)=O)s1,O,0,0,8.1,['8.1'],['chembl25']
2267,COCC(=O)[O-],O,0,0,3.53,['3.53'],['datawarrior']
2268,COCC(C)C[NH+](C)C,O,0,0,9.69,['9.69'],['datawarrior']
2269,COCC(COC)NC(=O)c1nc(N2CC[C@@H](NC(=O)c3[nH]c(C)c(Cl)c3Cl)[C@@H](OC)C2)sc1C(=O)[O-],O,0,0,4.5,['4.5'],['chembl25']
2270,COCC/N=C(\c1ccccc1)C(C)(C)O,O,0,0,5.75,['5.75'],['datawarrior']
2271,COCC1(C)[NH2+]CCc2c1oc1cc(S(=O)(=O)c3cccc(F)c3)ccc21,O,0,0,7.5,['7.5'],['chembl25']
2272,COCC1=C(C(=O)[O-])C2C=CC1C2,O,0,0,4.59,['4.59'],['datawarrior']
2273,COCC1=C(C(=O)[O-])CC1,O,0,0,4.31,['4.31'],['datawarrior']
2274,COCC1=C(C(=O)[O-])CCC1,O,0,0,4.5,['4.5'],['datawarrior']
2275,COCC1CC(C(=O)NC[C@H]2CCCO2)C[NH+](Cc2nc(N3CCOCC3)oc2C)C1,O,0,0,7.5,['7.5'],['chembl25']
2276,COCCCC/C(=N\OCC[NH3+])c1ccc(C(F)(F)F)cc1,O,0,0,9.45,['9.45'],['chembl25']
2277,COCCCCNc1ccccc1,O,0,0,4.6,['4.6'],['datawarrior']
2278,COCCCCc1cc(C[C@@H](C[C@H]([NH3+])[C@@H](O)C[C@H](C(=O)NCC(C)(C)C(N)=O)C(C)C)C(C)C)ccc1OC,O,0,0,9.44,['9.44'],['chembl25']
2279,COCCCOc1cc(C[C@@H](C[C@H]([NH3+])[C@@H](O)C[C@H](C(=O)NCC(C)(C)C(N)=O)C(C)C)C(C)C)ccc1OC,O,0,0,9.8,['9.8'],['chembl25']
2280,COCCCOc1cc(C[C@@H](C[C@H]([NH3+])[C@@H](O)C[C@H](C(=O)NC[C@H]2CCC(=O)N2)C(C)C)C(C)C)ccc1OC,O,0,0,9.09,['9.09'],['chembl25']
2281,COCCC[NH+](C)C,O,0,0,9.36,['9.36'],['datawarrior']
2282,COCCC[NH3+],O,0,0,9.92,['9.92'],['datawarrior']
2283,COCCN(C)c1ccccc1,O,0,0,4.81,['4.81'],['datawarrior']
2284,COCCNC(=O)c1cc(N[C@H]2c3ccccc3C[C@@H]2O)c2nc(C)c(C)n2c1,O,0,0,6.01,['6.01'],['chembl25']
2285,COCCNC(=O)c1cn2c(C)c(C)nc2c2c1CCC(c1ccccc1)C2,O,0,0,7.22,['7.22'],['chembl25']
2286,COCCNC(=O)c1nc(N2CC[C@@H](NC(=O)c3[nH]c(C)c(Cl)c3Cl)[C@@H](OC)C2)sc1C(=O)[O-],O,0,0,4.4,['4.4'],['chembl25']
2287,COCCNC(=S)S,O,0,0,2.85,['2.85'],['datawarrior']
2288,COCCNc1ccc(C)cc1,O,0,0,4.64,['4.64'],['datawarrior']
2289,COCCNc1ccc(Cl)cc1,O,0,0,3.3,['3.3'],['datawarrior']
2290,COCCNc1ccc(OC)cc1,O,0,0,5.02,['5.02'],['datawarrior']
2291,COCCNc1cccc(C)c1,O,0,0,4.29,['4.29'],['datawarrior']
2292,COCCNc1cccc(OC)c1,O,0,0,3.7,['3.7'],['datawarrior']
2293,COCCNc1ccccc1,O,0,0,4.05,['4.05'],['datawarrior']
2294,COCCOc1ccc(-c2cc3c(C(=O)[O-])c[nH]c3cc2Cl)cc1,O,0,0,5.0,['5.0'],['chembl25']
2295,COCC[NH+](C)C,O,0,0,8.96,['8.96'],['datawarrior']
2296,COCC[NH+]1CCC[C@@H](Cn2c(-c3ccccc3C)nc3cn(-c4ccc(Cl)cc4)nc3c2=O)C1,O,0,0,8.5,['8.5'],['chembl25']
2297,COCC[NH3+],O,0,0,9.67,['9.67'],['datawarrior']
2298,COCCc1[nH]c(C)c[nH+]1,O,0,0,8.13,['8.13'],['datawarrior']
2299,COCCc1ccc(OCC(O)C[NH2+]C(C)C)cc1,O,0,0,9.536,['9.536'],['chembl25']
2300,COCCc1ccc(OC[C@@H](O)C[NH2+]C(C)C)cc1,O,0,0,9.6,['9.6'],['chembl25']
2301,COCCn1cc(C(=O)c2cccc3ccccc23)c2ccncc21,O,0,0,5.8,['5.8'],['chembl25']
2302,COC[C@@H](Oc1cc(C[C@@H]2CS(=O)C[C@H](NCc3cc(CC(C)(C)C)on3)[C@H]2O)cc(F)c1N)C(F)(F)F,O,0,0,4.9,['4.9'],['chembl25']
2303,COC[C@H](C)NC(=O)c1nc(N2CC[C@@H](NC(=O)c3[nH]c(C)c(Cl)c3Cl)[C@@H](OC)C2)sc1C(=O)[O-],O,0,0,4.2,['4.2'],['chembl25']
2304,COC[C@H](C1CC1)n1cc(Cl)nc(Nc2cc(C)c(OC)nc2C)c1=O,O,0,0,3.1,['3.1'],['chembl25']
2305,COCc1[nH]c(C)c[nH+]1,O,0,0,7.03,['7.03'],['datawarrior']
2306,COCc1ccc(C(=O)[O-])cc1,O,0,0,4.18,['4.18'],['datawarrior']
2307,COCc1cccc(COC)n1,O,0,0,3.43,['3.43'],['datawarrior']
2308,COCc1ccccc1C(=O)[O-],O,0,0,3.85,['3.85'],['datawarrior']
2309,COCc1ccccc1C[NH+](C)C,O,0,0,9.19,['9.19'],['datawarrior']
2310,COCc1ccccc1[C@@H]1CCc2c(C(=O)N(C)C)cc3c(nc(C)n3C)c2O1,O,0,0,5.61,['5.61'],['chembl25']
2311,COCc1cn2c(C)c(C)nc2c2c1CCC(c1ccccc1)C2,O,0,0,7.79,['7.79'],['chembl25']
2312,COCc1nc2c(n1C)C(=O)c1nc[nH]c(=O)c1C2=O,O,0,0,6.17,['6.17'],['datawarrior']
2313,CON,O,0,0,4.62,['4.62'],['datawarrior']
2314,CON(C)C,O,0,0,3.65,['3.65'],['datawarrior']
2315,CON(C)C(=O)c1cn2c(C)c(C)nc2c2c1CCC(c1ccccc1)O2,O,0,0,6.49,['6.49'],['chembl25']
2316,CON(C)C(=O)c1cn2c(C)c(C)nc2c2c1CCC1(CCc3ccccc31)O2,O,0,0,6.63,['6.63'],['chembl25']
2317,CONC(=O)CCc1ccccc1,O,0,0,9.47,['9.47'],['chembl25']
2318,COO,O,0,0,11.5,['11.5'],['datawarrior']
2319,CO[C@@H]1[C@@H](OC(=O)c2ccc(C)[nH]2)[C@@H](O)[C@H](Oc2ccc3c(N(C)CC[NH+](C)C)cc(=O)oc3c2C)OC1(C)C,O,0,0,8.2,['8.2'],['chembl25']
2320,CO[C@@H]1[C@@H](OC(=O)c2ccc(C)[nH]2)[C@@H](O)[C@H](Oc2ccc3c(N4CC(C)[NH2+]C(C)C4)cc(=O)oc3c2C)OC1(C)C,O,0,0,8.0,['8.0'],['chembl25']
2321,CO[C@@H]1[C@@H](OC(=O)c2ccc(C)[nH]2)[C@@H](O)[C@H](Oc2ccc3c(N4CCC([NH+](C)C)CC4)cc(=O)oc3c2C)OC1(C)C,O,0,0,9.0,['9.0'],['chembl25']
2322,CO[C@@H]1[C@@H](OC(=O)c2ccc(C)[nH]2)[C@@H](O)[C@H](Oc2ccc3c(N4CC[NH+](C)CC4)c(Cl)c(=O)oc3c2C)OC1(C)C,O,0,0,7.4,['7.4'],['chembl25']
2323,CO[C@@H]1[C@@H](OC(=O)c2ccc(C)[nH]2)[C@@H](O)[C@H](Oc2ccc3c(N4CC[NH+](C)CC4)cc(=O)oc3c2C)OC1(C)C,O,0,0,7.3,['7.3'],['chembl25']
2324,CO[C@@H]1[C@@H](OC(=O)c2ccc(C)[nH]2)[C@@H](O)[C@H](Oc2ccc3c(N4CC[NH2+]C(C)C4)cc(=O)oc3c2C)OC1(C)C,O,0,0,8.3,['8.3'],['chembl25']
2325,CO[C@@H]1[C@@H](OC(=O)c2ccc(C)[nH]2)[C@@H](O)[C@H](Oc2ccc3c(N4CC[NH2+]CC4)cc(=O)oc3c2C)OC1(C)C,O,0,0,8.3,['8.3'],['chembl25']
2326,CO[C@H]1C(=O)N2C(C(=O)C(C)(C)C)=C(C)C(Sc3nnc(C)s3)S(=O)(=O)[C@H]12,O,0,0,7.5,['7.5'],['chembl25']
2327,CO[C@H]1C(=O)N2C(C(=O)C(C)(C)C)=C(C)C(Sc3nnnn3C)S(=O)(=O)[C@H]12,O,0,0,7.9,['7.9'],['chembl25']
2328,CO[C@H]1C(=O)N2C(C(=O)C(C)(C)C)=C(CSc3nnc(C)s3)CS(=O)(=O)[C@H]12,O,0,0,11.9,['11.9'],['chembl25']
2329,CO[C@H]1C(=O)N2C(C(=O)C(C)(C)C)=C(CSc3nnnn3C)CS(=O)(=O)[C@H]12,O,0,0,11.6,['11.6'],['chembl25']
2330,CO[C@H]1C(=O)N2C(C(=O)c3ccccc3)=C(C)CS(=O)(=O)[C@H]12,O,0,0,9.6,['9.6'],['chembl25']
2331,CO[C@H]1C(=O)N2C(C(=O)c3ccccc3)=C(CSc3nnnn3C)CS(=O)(=O)[C@H]12,O,0,0,8.4,['8.4'],['chembl25']
2332,CO[C@H]1C=CC2=CC[NH+]3CCC(CO)=C(CCO)[C@]23C1,O,0,0,7.8,['7.8'],['datawarrior']
2333,CO[C@H]1C=CC2=CC[NH+]3CC[C@H](CO)/C(=C\CO)[C@]23C1,O,0,0,7.79,['7.79'],['datawarrior']
2334,CO[C@H]1CC=C2CC[NH+]3CCC(CO)=C(CCO)[C@]23C1,O,0,0,8.69,['8.69'],['datawarrior']
2335,CO[C@H]1CC=C2CC[NH+]3CC[C@H](CO)/C(=C\CO)[C@]23C1,O,0,0,8.42,['8.42'],['datawarrior']
2336,CO[C@H]1CN(c2nc(-c3cnccn3)c(C(=O)[O-])s2)CC[C@H]1NC(=O)c1[nH]c(C)c(Cl)c1Cl,O,0,0,5.4,['5.4'],['chembl25']
2337,CO[C@H]1CN(c2nc(-c3ncccn3)c(C(=O)[O-])s2)CC[C@H]1NC(=O)c1[nH]c(C)c(Cl)c1Cl,O,0,0,5.2,['5.2'],['chembl25']
2338,CO[C@H]1CN(c2nc(-c3ncnn3C)c(C(=O)[O-])s2)CC[C@H]1NC(=O)c1[nH]c(C)c(Cl)c1Cl,O,0,0,4.5,['4.5'],['chembl25']
2339,CO[C@H]1CN(c2ncc(C(=O)[O-])s2)CC[C@H]1NC(=O)c1[nH]c(C)c(Cl)c1Cl,O,0,0,3.6,['3.6'],['chembl25']
2340,CO[C@H]1C[C@@H]1C(=O)[O-],O,0,0,4.47,['4.47'],['datawarrior']
2341,CO[C@H]1C[C@H]1C(=O)[O-],O,0,0,4.76,['4.76'],['datawarrior']
2342,CO[C@H]1O[C@H](C(=O)[O-])[C@H](O)[C@H](O)[C@H]1O,O,0,0,3.55,['3.55'],['datawarrior']
2343,COc1c(Br)cccc1C(=O)N[C@H]1C[C@@H]2CC[C@H](C1)[NH+]2Cc1ccccc1,O,0,0,8.73,['8.73'],['datawarrior']
2344,COc1c(C(=O)[O-])oc2ccccc12,O,0,0,3.7,['3.7'],['datawarrior']
2345,COc1c(C)cc(C2(c3cccc(-c4cncnc4)c3)N=C(C)C(N)=[NH+]2)cc1C,O,0,0,5.3,['5.3'],['chembl25']
2346,COc1c(C)cc(C2(c3cccc(-c4cncnc4)c3)[NH+]=C(N)c3c(F)cccc32)nc1C,O,0,0,8.1,['8.1'],['chembl25']
2347,COc1c(C)cc([C@@]2(c3cccc(-c4cncnc4)c3)N=C(C)C(N)=[NH+]2)cc1C,O,0,0,5.2,['5.2'],['chembl25']
2348,COc1c(C)cc2c(c1C(=O)[O-])COC2,O,0,0,3.13,['3.13'],['datawarrior']
2349,COc1c(C)cccc1C(=O)N[C@H]1C[C@@H]2CC[C@H](C1)[NH+]2Cc1ccccc1,O,0,0,8.92,['8.92'],['datawarrior']
2350,COc1c(C)cccc1C(=O)[O-],O,0,0,3.84,['3.84'],['datawarrior']
2351,COc1c(C)ncc(CO)c1C=O,O,0,0,4.75,['4.75'],['datawarrior']
2352,COc1c(CC=C(C)C)c(O)c(C(=O)[O-])c(CCc2ccccc2)c1CC=C(C)C,O,0,0,3.5,['3.5'],['chembl25']
2353,COc1c(Cl)ccc2c1C(C)NC(=[NH+]CC(F)F)N2,O,0,0,8.9,['8.9'],['chembl25']
2354,COc1c(O)ccc2c1C[N+]1(C)CCc3cc4c(cc3[C@@H]1C2)OCO4,O,0,0,8.45,['8.45'],['datawarrior']
2355,COc1c2ccccc2nc2ccccc12,O,0,0,7.0,['7.0'],['datawarrior']
2356,COc1c[nH+]ccc1N,O,0,0,9.03,['9.03'],['datawarrior']
2357,COc1cc(-c2cccc(Cl)c2)ncc1C1CCCN1C(=O)c1cncs1,O,0,0,5.0,['5.0'],['chembl25']
2358,COc1cc(-n2cncc2-c2ccc3ccccc3c2)cc(OC)c1OC,O,0,0,5.58,['5.58'],['chembl25']
2359,COc1cc(/C=C/C(O)=C/C(C)=O)ccc1O[C@@H]1O[C@H](CO)[C@@H](O)[C@H](O)[C@H]1O,O,0,0,8.74,['8.74'],['chembl25']
2360,COc1cc(/C=C2\CCCN3C2=[NH+]OC3(C)c2ccc(F)cc2)ccc1-n1cnc(C)c1,O,0,0,6.7,['6.7'],['chembl25']
2361,COc1cc(/C=C2\CCCN3C2=[NH+]O[C@@]3(CO)c2ccc(F)cc2)ccc1-n1cnc(C)c1,O,0,0,5.8,['5.8'],['chembl25']
2362,COc1cc(=O)nc2sc(S(N)(=O)=O)nn12,O,0,0,7.1,['7.1'],['chembl25']
2363,COc1cc(Br)cc(C(=O)N[C@H]2C[C@@H]3CC[C@H](C2)[NH+]3Cc2ccccc2)c1OC,O,0,0,8.84,['8.84'],['datawarrior']
2364,COc1cc(C#N)cc(C(=O)N[C@H]2C[C@@H]3CC[C@H](C2)[NH+]3Cc2ccccc2)c1OC,O,0,0,8.7,['8.7'],['datawarrior']
2365,COc1cc(C(=O)N[C@@H]2CCC[C@@H]3CC[NH+](C)C[C@@H]32)cc(OC)c1OC,O,0,0,9.02,['9.02'],['chembl25']
2366,COc1cc(C(=O)N[C@@H]2CCC[C@@H]3CC[NH+](C)C[C@H]32)cc(OC)c1OC,O,0,0,8.75,['8.75'],['chembl25']
2367,COc1cc(C(=O)O[C@@H]2CCC[C@@H]3CC[NH+](C)C[C@@H]32)cc(OC)c1OC,O,0,0,8.91,['8.91'],['chembl25']
2368,COc1cc(C(=O)O[C@@H]2CCC[C@@H]3CC[NH+](C)C[C@H]32)cc(OC)c1OC,O,0,0,8.82,['8.82'],['chembl25']
2369,COc1cc(C(=O)[O-])ccc1C,O,0,0,4.13,['4.13'],['datawarrior']
2370,COc1cc(C(C#N)N2CCCC2)cc(OC)c1OC,O,0,0,4.2,['4.2'],['chembl25']
2371,COc1cc(C(C#N)N2CCCCC2)cc(OC)c1OC,O,0,0,3.9,['3.9'],['chembl25']
2372,COc1cc(C(C#N)N2CC[NH+](C)CC2)cc(OC)c1OC,O,0,0,7.6,['7.6'],['chembl25']
2373,COc1cc(C(C)=O)ccc1O,O,0,0,7.65,['7.65'],['datawarrior']
2374,COc1cc(C(F)(F)F)cc(SC)c1C(=O)N[C@@]1(c2ccccc2)CCC[NH+](C)C1,O,0,0,7.72,['7.72'],['chembl25']
2375,COc1cc(C(F)(F)F)ccc1-c1cccc2cc(S(=O)(=O)Nc3cscn3)ccc12,O,0,0,7.2,['7.2'],['chembl25']
2376,COc1cc(C(F)(F)F)ccc1-c1cccc2cc(S(=O)(=O)Nc3nccs3)ccc12,O,0,0,6.7,['6.7'],['chembl25']
2377,COc1cc(C(F)(F)F)ccc1-c1cccc2cc(S(=O)(=O)Nc3ncns3)ccc12,O,0,0,3.7,['3.7'],['chembl25']
2378,COc1cc(C(F)(F)F)ccc1-c1ncnc2cc(S(=O)(=O)Nc3nccs3)ccc12,O,0,0,6.5,['6.5'],['chembl25']
2379,COc1cc(C)c(-c2ncc[nH]2)cc1-c1ccc(C#CCO)s1,O,0,0,6.6,['6.6'],['chembl25']
2380,COc1cc(C)c(-c2noc(=O)[nH]2)cc1-c1ccc(C#CCO)s1,O,0,0,5.5,['5.5'],['chembl25']
2381,COc1cc(C)c(C(=O)NS(=O)(=O)c2ccccc2)cc1-c1ccc(C#CCO)s1,O,0,0,3.8,['3.8'],['chembl25']
2382,COc1cc(C)c(C(=O)NS(C)(=O)=O)cc1-c1ccc(C#CCO)s1,O,0,0,4.0,['4.0'],['chembl25']
2383,COc1cc(C)c(C(=O)[O-])cc1-c1ccc(C#CCO)s1,O,0,0,4.2,['4.2'],['chembl25']
2384,COc1cc(C)c(Nc2nc(Cl)cn([C@H](C)C3CC3)c2=O)c(C)n1,O,0,0,3.8,['3.8'],['chembl25']
2385,COc1cc(C)c(S(=O)(=O)NC(C)=O)cc1-c1ccc(C#CCO)s1,O,0,0,4.8,['4.8'],['chembl25']
2386,COc1cc(C)ccc1C(=O)[O-],O,0,0,4.38,['4.38'],['datawarrior']
2387,COc1cc(C)ccc1NC1=[NH+]CCN1,O,0,0,10.6,['10.6'],['chembl25']
2388,COc1cc(C)nc(NN)n1,O,0,0,6.2,['6.2'],['datawarrior']
2389,COc1cc(C)ncn1,O,0,0,3.65,['3.65'],['datawarrior']
2390,COc1cc(C=O)ccc1O,O,0,0,7.38,['7.38'],['datawarrior']
2391,COc1cc(CO)ccc1O,O,0,0,9.79,['9.79'],['datawarrior']
2392,COc1cc(COc2cccc(NC(=O)C3CCN(c4cc[nH+]cc4)CC3)c2)cc(OC)c1,O,0,0,8.9,['8.9'],['chembl25']
2393,COc1cc(Cc2cnc(N)nc2N)cc(OC)c1OC,O,0,0,7.1975,['7.1975'],['chembl25']
2394,COc1cc(Cl)c(NC2=[NH+]CCN2)c(Cl)c1,O,0,0,8.57,['8.57'],['chembl25']
2395,COc1cc(Cl)c(Nc2ccccc2CC(=O)[O-])c(Cl)c1,O,0,0,4.2,['4.2'],['chembl25']
2396,COc1cc(Cl)ccc1OC(c1ccccc1)C1C[NH2+]CCO1,O,0,0,7.7,['7.7'],['chembl25']
2397,COc1cc(F)cc(N2CC[NH+](CCCCNC(=O)c3ccc4nonc4c3)CC2)c1,O,0,0,7.34,['7.34'],['chembl25']
2398,COc1cc(F)ccc1Cn1ccc2c3c(ncc21)C(=O)N(O)CC3,O,0,0,7.6,['7.6'],['chembl25']
2399,COc1cc(N)c(C#N)c(N)[nH+]1,O,0,0,4.17,['4.17'],['datawarrior']
2400,COc1cc(N)c(Cl)cc1C(=O)NC1CC[NH+](CCCOc2ccc(F)cc2)CC1OC,O,0,0,7.8,['7.8'],['chembl25']
2401,COc1cc(N)c(Cl)cc1C(=O)NC1CC[NH+](Cc2ccccc2)CC1,O,0,0,8.59,['8.59'],['chembl25']
2402,COc1cc(N)c(Cl)cc1C(=O)NC1CC[NH+]2C(C)CCCC2C1,O,0,0,9.2,['9.2'],['chembl25']
2403,COc1cc(N)c(Cl)cc1C(=O)NC1CC[NH+]2CCOCC2C1,O,0,0,6.3,['6.3'],['chembl25']
2404,COc1cc(NCc2ccccc2)nc(N)n1,O,0,0,5.76,['5.76'],['chembl25']
2405,COc1cc(NS(=O)(=O)C(F)(F)F)cc(OC)c1Oc1ccc(C#N)c(Cl)c1,O,0,0,4.5,['4.5'],['chembl25']
2406,COc1cc(NS(=O)(=O)c2ccc(N)cc2)nc(OC)n1,O,0,0,5.98,['5.98'],['chembl25']
2407,COc1cc(NS(C)(=O)=O)cc(OC)c1Oc1ccc(C#N)c(Cl)c1,O,0,0,8.5,['8.5'],['chembl25']
2408,COc1cc(OC)c(-c2ccc(C#CCO)s2)cc1C(=O)NS(=O)(=O)c1ccccc1,O,0,0,4.8,['4.8'],['chembl25']
2409,COc1cc(OC)c(/C=C/S(=O)(=O)Cc2ccc(OC)c(N)n2)c(OC)c1,O,0,0,4.67,['4.67'],['chembl25']
2410,COc1cc(OC)c(/C=C/S(=O)(=O)Cc2ccc(OC)c(NS(C)(=O)=O)n2)c(OC)c1,O,0,0,7.28,['7.28'],['chembl25']
2411,COc1cc(OC)c(/C=C/S(=O)(=O)Cc2cnc(OC)c(N)c2)c(OC)c1,O,0,0,2.39,['2.39'],['chembl25']
2412,COc1cc(OC)c(/C=C/S(=O)(=O)Cc2cnc(OC)c(NS(C)(=O)=O)c2)c(OC)c1,O,0,0,7.66,['7.66'],['chembl25']
2413,COc1cc(OC)c(NC2=[NH+]CCN2)cc1Cl,O,0,0,10.15,['10.15'],['chembl25']
2414,COc1cc(OC)c(OC)c(C(=O)N[C@@H]2C[C@@H]3CC[C@H](C2)[NH+]3Cc2ccccc2)c1,O,0,0,8.84,['8.84'],['datawarrior']
2415,COc1cc(OC)c2c(c1Cl)O[C@]1(C(=O)C=C([O-])C[C@@H]1C)C2=O,O,0,0,4.49,['4.49'],['datawarrior']
2416,COc1cc(OC)nc([N-]S(=O)(=O)c2ccc(N)cc2)n1,O,0,0,7.12,['7.12'],['datawarrior']
2417,COc1cc(S(C)(=O)=O)cc(C(=O)N[C@H]2C[C@@H]3CC[C@H](C2)[NH+]3Cc2ccccc2)c1OC,O,0,0,8.92,['8.92'],['datawarrior']
2418,COc1cc(S(C)=O)ccc1-c1cn2ccncc2[nH+]1,O,0,0,2.88,['2.88'],['datawarrior']
2419,COc1cc(S(C)=O)ccc1-c1nc2nccnc2[nH]1,O,0,0,8.94,['8.94'],['datawarrior']
2420,COc1cc(S(C)=O)ccc1-c1nc2ncncc2[nH]1,O,0,0,8.91,['8.91'],['datawarrior']
2421,COc1cc([C@H]2CN=C(c3ccc4c(ccn4C)c3)O2)cc(OC)c1OC,O,0,0,5.0,['5.0'],['chembl25']
2422,COc1cc2[nH+]c(N3CCCN(C(=O)N4CCOCC4)CC3)cc(N)c2c(-c2ccc(F)cc2)c1OC,O,0,0,8.5,['8.5'],['chembl25']
2423,COc1cc2[nH+]c(N3CCCN(C(=O)N4CCOCC4)CC3)cc(N)c2c(-c2ccccc2)c1OC,O,0,0,8.5,['8.5'],['chembl25']
2424,COc1cc2[nH+]c(N3CCCN(C(=O)N4CCOCC4)CC3)cc(N)c2c(-c2ncco2)c1OC,O,0,0,7.5,['7.5'],['chembl25']
2425,COc1cc2c(Nc3c(Cl)ccc4c3OCO4)ncnc2cc1OCc1ccnc(C#N)c1,O,0,0,4.9,['4.9'],['chembl25']
2426,COc1cc2c(Nc3ccc(Br)cc3F)ncnc2cc1OCCn1ccnn1,O,0,0,5.3,['5.3'],['chembl25']
2427,COc1cc2c(cc1O)CC[n+]1cc3c(OC)c(OC)ccc3cc1-2,O,0,0,9.6,['9.6'],['chembl25']
2428,COc1cc2c(cc1OC)-c1c(-c3cnc(C(=O)N(C)C(C)(C)C)s3)ncn1CC2,O,0,0,4.0,['4.0'],['chembl25']
2429,COc1cc2c(cc1OC)-c1c(-c3cncs3)nc(C)n1CC2,O,0,0,5.0,['5.0'],['chembl25']
2430,COc1cc2c(cc1OC)-c1c(-c3cncs3)ncn1CC2,O,0,0,4.3,['4.3'],['chembl25']
2431,COc1cc2c(cc1OC)C(=O)C(CC1CC[NH+](Cc3ccccc3)CC1)C2,O,0,0,9.08,['9.08'],['chembl25']
2432,COc1cc2c(cc1OC)C(=O)Cc1ccc3c(c1C[NH+](C)CC2)OCO3,O,0,0,8.09,['8.09'],['datawarrior']
2433,COc1cc2c(cc1OC)C13CC[NH+]4C1CC1C(=CCOC5CC(=O)N2C3C51)[C@@H]4S(=O)(=O)[O-],O,0,0,3.12,['3.12'],['datawarrior']
2434,COc1cc2c(cc1OC)NC(N)=[NH+]C2,O,0,0,11.1,['11.1'],['chembl25']
2435,COc1cc2c(cc1OC)NCC2,O,0,0,7.3,['7.3'],['datawarrior']
2436,COc1cc2c(cc1OC)[C@]13CC[NH+]4CC5=CCO[C@@H]6CC(=O)N2[C@@H]1[C@@H]6[C@@H]5C[C@@H]43,O,0,0,5.86,['5.86'],['datawarrior']
2437,COc1cc2c(cc1OC)[C@]13CC[NH+]4CC5=CCO[C@H]6CC(=O)N2[C@H]1C6[C@@]5(S(=O)(=O)[O-])C[C@H]43,O,0,0,7.45,['7.45'],['datawarrior']
2438,COc1cc2ccc(=O)oc2cc1O,O,0,0,6.5,['6.5'],['datawarrior']
2439,COc1cc2ccccc2cc1C(=O)[O-],O,0,0,3.82,['3.82'],['datawarrior']
2440,COc1cc2nc(N(C)CCCNC(=O)C3CCCO3)nc(N)c2cc1OC,O,0,0,8.1,['8.1'],['chembl25']
2441,COc1cc2nc(N3CCN(C(=O)C4CCCO4)CC3)nc(N)c2cc1OC,O,0,0,7.1,['7.1'],['chembl25']
2442,COc1cc2nc(N3CCN(C(=O)C4COc5ccccc5O4)CC3)nc(N)c2cc1OC,O,0,0,6.7,['6.7'],['chembl25']
2443,COc1cc2nc(N3CCN(C(=O)c4ccco4)CC3)nc(N)c2cc1OC,O,0,0,6.625,['6.625'],['chembl25']
2444,COc1ccc(-c2c([O-])c2=O)cc1,O,0,0,2.33,['2.33'],['datawarrior']
2445,COc1ccc(-c2cc(C(=O)[O-])[nH]n2)cc1,O,0,0,3.31,['3.31'],['chembl25']
2446,COc1ccc(-c2cc3c(C(=O)[O-])c[nH]c3cc2Cl)c(OC)n1,O,0,0,4.8,['4.8'],['chembl25']
2447,COc1ccc(-c2cc3c(C(=O)[O-])c[nH]c3cc2Cl)cn1,O,0,0,2.4,['2.4'],['chembl25']
2448,COc1ccc(-c2cc3ccncc3[nH]2)c(OC)c1,O,0,0,8.29,['8.29'],['datawarrior']
2449,COc1ccc(-c2cc3cnccc3[nH]2)c(OC)c1,O,0,0,8.49,['8.49'],['datawarrior']
2450,COc1ccc(-c2ccc(-c3ccccc3Cl)n2Cc2cccc(N)n2)cc1,O,0,0,6.86,['6.86'],['chembl25']
2451,COc1ccc(-c2ccc(/C=C3/SC(=S)N(CC(=O)[O-])C3=O)o2)cc1,O,0,0,3.62,['3.62'],['chembl25']
2452,COc1ccc(-c2ccc(CCC[NH+](C)C)cc2)cc1,O,0,0,9.85,['9.85'],['chembl25']
2453,COc1ccc(-c2cn3ccnc3[nH]2)c(OC)c1,O,0,0,6.76,['6.76'],['datawarrior']
2454,COc1ccc(-c2cnc(-c3ccc(N)cc3)o2)cc1,O,0,0,3.22,['3.22'],['datawarrior']
2455,COc1ccc(-c2cncn2-c2cc(OC)c(OC)c(OC)c2)cc1,O,0,0,6.82,['6.82'],['chembl25']
2456,COc1ccc(-c2nc3cnccc3n2C)c(OC)c1,O,0,0,6.16,['6.16'],['datawarrior']
2457,COc1ccc(-c2nc3nc(SC)nnc3[nH]2)c(OC)c1,O,0,0,7.69,['7.69'],['datawarrior']
2458,COc1ccc(-c2nc3ncncc3[nH]2)c(OC)c1,O,0,0,9.92,['9.92'],['datawarrior']
2459,COc1ccc(-c2ncc(-c3ccc(N)cc3)o2)cc1,O,0,0,3.71,['3.71'],['datawarrior']
2460,COc1ccc(-c2nccn2-c2cc(OC)c(OC)c(OC)c2)cc1F,O,0,0,6.63,['6.63'],['chembl25']
2461,COc1ccc(-c2nn[n-]n2)cc1,O,0,0,4.23,['4.23'],['datawarrior']
2462,COc1ccc(-c2nnc(C(=O)N3CC(Oc4ccc(CN5CC[NH+](C)CC5)c(F)c4)C3)o2)cc1,O,0,0,8.4,['8.4'],['chembl25']