,Solute SMILES,Solvent SMILES,Solute CAS,Solute IUPAC,pKa (avg),pKa (all),Source
1383,CCCCSC1=[NH+]CCN1,O,0,0,9.0,['9.0'],['datawarrior']
1384,CCCCSCC(=O)[O-],O,0,0,3.81,['3.81'],['datawarrior']
1385,CCCCSCC[NH+](CC)CC,O,0,0,8.43,['8.43'],['datawarrior']
1386,CCCCSCC[NH3+],O,0,0,8.37,['8.37'],['datawarrior']
1387,CCCC[As](=O)([O-])CCCC,O,0,0,6.65,['6.65'],['datawarrior']
1388,CCCC[C@@]1(C2CCCC2)Cc2cc(OCC(=O)[O-])c(Cl)c(Cl)c2C1=O,O,0,0,3.9,['3.9'],['chembl25']
1389,CCCC[C@@]1(C2CCCC2)Cc2cc(OCCCC(=O)[O-])c(Cl)c(Cl)c2C1=O,O,0,0,4.4,['4.4'],['chembl25']
1390,CCCC[C@]1(C2CCCC2)Cc2cc(OCC(=O)[O-])c(Cl)c(Cl)c2C1=O,O,0,0,3.9,['3.9'],['chembl25']
1391,CCCC[C@]1(C2CCCC2)Cc2cc(OCCCC(=O)[O-])c(Cl)c(Cl)c2C1=O,O,0,0,4.4,['4.4'],['chembl25']
1392,CCCC[NH+](C)C,O,0,0,10.03,['10.03'],['datawarrior']
1393,CCCC[NH+](CC(C)O)CC(C)O,O,0,0,9.3,['9.3'],['datawarrior']
1394,CCCC[NH+](CC1CO1)CC1CO1,O,0,0,6.91,['6.91'],['datawarrior']
1395,CCCC[NH+](CCCC)CCCC,O,0,0,10.8,['10.8'],['datawarrior']
1396,CCCC[NH+](CCCl)CCCl,O,0,0,6.63,['6.63'],['datawarrior']
1397,CCCC[NH+]1CCCC1,O,0,0,10.36,['10.36'],['datawarrior']
1398,CCCC[NH+]1CCCC1C,O,0,0,10.65,['10.65'],['datawarrior']
1399,CCCC[NH+]1CCCCC1,O,0,0,10.47,['10.47'],['datawarrior']
1400,CCCC[NH+]1CCCCC1C,O,0,0,10.7,['10.7'],['datawarrior']
1401,CCCC[NH+]1CCCCC1C(=O)Nc1c(C)cccc1C,O,0,0,7.715,['7.715'],"['datawarrior', 'chembl25']"
1402,CCCC[NH+]=C(N)[NH+]=C(N)Nc1ccc(Cl)cc1,O,0,0,10.78,['10.78'],['chembl25']
1403,CCCC[NH+]=C1Nc2ccccc2C(C)N1,O,0,0,10.7,['10.7'],['chembl25']
1404,CCCC[NH2+]C,O,0,0,10.8,['10.8'],['datawarrior']
1405,CCCC[NH2+]CC(=O)Nc1c(C)cccc1C,O,0,0,8.04,['8.04'],['datawarrior']
1406,CCCC[NH2+]CCCC,O,0,0,11.29,['11.29'],['datawarrior']
1407,CCCC[NH2+]Cc1ccc(C)cc1,O,0,0,9.98,['9.98'],['datawarrior']
1408,CCCC[NH2+]Cc1ccccc1,O,0,0,9.46,['9.46'],['datawarrior']
1409,CCCC[NH3+],O,0,0,10.723333,['10.723333'],"['datawarrior', 'chembl25']"
1410,CCCC[P+](CCCC)(CCCC)C1c2ccccc2-c2ccccc21,O,0,0,10.53,['10.53'],['datawarrior']
1411,CCCCc1c(-c2ccccc2)[nH][nH]c1=O,O,0,0,8.2,['8.2'],['datawarrior']
1412,CCCCc1c(-c2ccccc2)[nH]n(-c2ccccc2)c1=O,O,0,0,7.2,['7.2'],['datawarrior']
1413,CCCCc1c(C)nc(NCC)[nH]c1=O,O,0,0,8.04,['8.04'],['datawarrior']
1414,CCCCc1c([O-])n(-c2ccccc2)n(-c2ccccc2)c1=O,O,0,0,4.5,['4.5'],['chembl25']
1415,CCCCc1cc(Cl)cc(Cl)c1O,O,0,0,8.1,['8.1'],['datawarrior']
1416,CCCCc1ccc(C(=O)[O-])nc1,O,0,0,5.7,['5.7'],['datawarrior']
1417,CCCCc1ccccc1N,O,0,0,4.26,['4.26'],['datawarrior']
1418,CCCCc1cccnn1,O,0,0,3.49,['3.49'],['datawarrior']
1419,CCCCc1nc(Cl)c(CC(=O)OC)n1Cc1ccc(NC(=O)c2ccc(Cl)cc2)cc1,O,0,0,4.5,['4.5'],['chembl25']
1420,CCCCc1nc(N)c2ncsc2n1,O,0,0,3.49,['3.49'],['datawarrior']
1421,CCCCn1cc(C[NH2+][C@H]2[C@H](O)[C@@H](O)[C@H](O)[C@@H](O)[C@@H]2O)nn1,O,0,0,7.2,['7.2'],['chembl25']
1422,CCCCn1ccnc1,O,0,0,7.14,['7.14'],['datawarrior']
1423,CCCCn1cnc2ccccc21,O,0,0,5.31,['5.31'],['datawarrior']
1424,CCCN(C)N,O,0,0,7.35,['7.35'],['datawarrior']
1425,CCCN(C)N(C)CCC,O,0,0,7.05,['7.05'],['datawarrior']
1426,CCCN(C)c1ccccc1,O,0,0,5.67,['5.67'],['datawarrior']
1427,CCCN(C1=[NH+]CCN1)c1c(Br)cccc1Br,O,0,0,11.0,['11.0'],['chembl25']
1428,CCCN(CC)c1ccccc1,O,0,0,6.39,['6.39'],['datawarrior']
1429,CCCN(CCC)C(=O)c1cc(C)cc(C(=O)N[C@@H](Cc2cc(F)cc(F)c2)[C@H](O)[C@@H]2[NH2+]CCN(Cc3ccccc3)C2=O)c1,O,0,0,6.0,['6.0'],['chembl25']
1430,CCCN(CCC)C(=O)c1cc(C)cc(C(=O)N[C@@H](Cc2cc(F)cc(F)c2)[C@H](O)[C@@H]2[NH2+]CN(Cc3ccccc3)C2=O)c1,O,0,0,3.6,['3.6'],['chembl25']
1431,CCCN(CCC)C(=O)c1cccc(C(=O)N[C@@H](Cc2ccccc2)[C@H](O)C[NH2+]C2CC2)c1,O,0,0,8.4,['8.4'],['chembl25']
1432,CCCN(CCC)C(=O)c1cccc(C(=O)N[C@@H](Cc2ccccc2)[C@H](O)[C@H]2CCC[NH2+]2)c1,O,0,0,9.6,['9.6'],['chembl25']
1433,CCCN(CCC)S(=O)(=O)c1ccc(C(=O)[O-])cc1,O,0,0,3.4,['3.4'],['chembl25']
1434,CCCN(CCC)c1ccccc1,O,0,0,6.13,['6.13'],['datawarrior']
1435,CCCN(N)CCC,O,0,0,7.0,['7.0'],['datawarrior']
1436,CCCN1C=CC(=CC=C2C=CC(=O)C=C2)C=C1,O,0,0,8.5,['8.5'],['datawarrior']
1437,CCCN=C1Nc2cccc(Cl)c2S(=O)(=O)N1,O,0,0,9.54,['9.54'],['chembl25']
1438,CCCNC(=O)Cn1cccc([O-])c1=O,O,0,0,8.75,['8.75'],['chembl25']
1439,CCCNC(=O)NS(=O)(=O)c1ccc(Cl)cc1,O,0,0,4.9,['4.9'],['chembl25']
1440,CCCNC(=O)c1ccc(-c2ccc(-c3ccccc3)n2Cc2cccc(N)n2)cc1,O,0,0,6.86,['6.86'],['chembl25']
1441,CCCNN,O,0,0,7.92,['7.92'],['datawarrior']
1442,CCCNc1ccccc1,O,0,0,5.12,['5.12'],['datawarrior']
1443,CCCNc1ncnc2c1cnn2C,O,0,0,4.25,['4.25'],['datawarrior']
1444,CCCOC(=O)[C@@H]([NH3+])CCC(=O)NCCSC(C)=O,O,0,0,8.8,['8.8'],['chembl25']
1445,CCCOC(=O)c1ccc(N)cc1,O,0,0,2.49,['2.49'],['datawarrior']
1446,CCCOC(=O)c1ccc(O)cc1,O,0,0,8.3,['8.3'],['datawarrior']
1447,CCCOC(=O)c1ccc(OS(N)(=O)=O)cc1,O,0,0,8.03,['8.03'],['chembl25']
1448,CCCOC(=S)[N-]C(C)=O,O,0,0,9.34,['9.34'],['datawarrior']
1449,CCCOC(C(=O)OC1CC[NH+](C)CC1)(c1ccccc1)c1ccccc1,O,0,0,6.65,['6.65'],['chembl25']
1450,CCCOCCCCCCn1cc(C[NH2+][C@H]2[C@H](O)[C@@H](O)[C@H](O)[C@@H](O)[C@@H]2O)nn1,O,0,0,7.1,['7.1'],['chembl25']
1451,CCCOc1ccc(-c2ccc(-c3ccccc3Cl)n2Cc2cccc(N)n2)cc1,O,0,0,6.86,['6.86'],['chembl25']
1452,CCCOc1ccc(C(=O)[O-])cc1,O,0,0,4.63,['4.63'],['datawarrior']
1453,CCCOc1ccc(O)cc1,O,0,0,10.23,['10.23'],['datawarrior']
1454,CCCOc1ccccc1C(=O)[O-],O,0,0,4.24,['4.24'],['datawarrior']
1455,CCCOc1noc2c1C[NH2+]CC2,O,0,0,7.6,['7.6'],['chembl25']
1456,CCCS,O,0,0,10.56,['10.56'],['datawarrior']
1457,CCCS(=O)(=O)n1c2c(c3cc(C(=O)N4CCC(C)CC4)ccc31)C[NH+](C1CCOC1)CC2,O,0,0,5.8,['5.8'],['chembl25']
1458,CCCS(=O)(=O)n1c2c(c3cc(C(=O)N4CCC(C)CC4)ccc31)C[NH+](C1CCOCC1)CC2,O,0,0,7.3,['7.3'],['chembl25']
1459,CCCS(=O)[O-],O,0,0,2.35,['2.35'],['datawarrior']
1460,CCCSC(=N)c1ccccc1,O,0,0,8.1,['8.1'],['datawarrior']
1461,CCCSC(=O)CCCc1cnc[nH]1,O,0,0,7.55,['7.55'],['datawarrior']
1462,CCCSC(C)C(=O)[O-],O,0,0,3.82,['3.82'],['datawarrior']
1463,CCCSC(N=O)C(=O)c1ccc(Br)cc1,O,0,0,8.45,['8.45'],['chembl25']
1464,CCCSCC(=O)[O-],O,0,0,3.77,['3.77'],['datawarrior']
1465,CCCSCC[NH+](CC)CC,O,0,0,8.83,['8.83'],['datawarrior']
1466,CCCSCC[NH3+],O,0,0,9.43,['9.43'],['datawarrior']
1467,CCCSS/C(CCO)=C(/C)N(C=O)Cc1cnc(C)nc1N,O,0,0,5.52,['5.52'],['datawarrior']
1468,CCC[C@@H]1C[C@@H](C(=O)N[C@H]([C@@H](C)O)[C@H]2O[C@H](SC)[C@H](O)[C@@H](O)[C@H]2O)[NH+](C)C1,O,0,0,7.65,['7.65'],['chembl25']
1469,CCC[NH+](C)C,O,0,0,9.62,['9.62'],['datawarrior']
1470,CCC[NH+](CC(C)O)CC(C)O,O,0,0,8.9,['8.9'],['datawarrior']
1471,CCC[NH+](CC(C)O)CC(O)CC,O,0,0,9.0,['9.0'],['datawarrior']
1472,CCC[NH+](CC(O)CC)CC(O)CC,O,0,0,9.0,['9.0'],['datawarrior']
1473,CCC[NH+](CC)C(CC)C(=O)Nc1c(C)cccc1C,O,0,0,6.62,['6.62'],['datawarrior']
1474,CCC[NH+](CCC)CC(=O)NC1c2ccccc2-c2ccccc21,O,0,0,7.28,['7.28'],['datawarrior']
1475,CCC[NH+](CCC)CC(=O)Nc1c(C)cccc1C,O,0,0,7.68,['7.68'],['datawarrior']
1476,CCC[NH+](CCC)CCC,O,0,0,10.47,['10.47'],['datawarrior']
1477,CCC[NH+](CCC)CCCNC(=O)CN=O,O,0,0,9.54,['9.54'],['datawarrior']
1478,CCC[NH+](CCC)CCc1c[nH]c2ccccc12,O,0,0,8.6,['8.6'],['datawarrior']
1479,CCC[NH+](CCC)Cc1no[n+]([O-])c1C#N,O,0,0,5.46,['5.46'],['chembl25']
1480,CCC[NH+](CCCl)CCCl,O,0,0,6.7,['6.7'],['datawarrior']
1481,CCC[NH+](CCO)CC(C)O,O,0,0,8.9,['8.9'],['datawarrior']
1482,CCC[NH+](CCO)CC(O)CC,O,0,0,9.0,['9.0'],['datawarrior']
1483,CCC[NH+](CCc1c[nH]c2ccccc12)Cc1ccc(CCC(=O)N=O)cc1,O,0,0,7.9,['7.9'],['chembl25']
1484,CCC[NH+]1CCCCC1,O,0,0,10.45,['10.45'],['datawarrior']
1485,CCC[NH+]1CCCC[C@H]1C(=O)Nc1c(C)cccc1C,O,0,0,8.07,['8.07'],['chembl25']
1486,CCC[NH+]1CCN(c2ccc(C#N)cc2)CC1,O,0,0,7.78,['7.78'],['chembl25']
1487,CCC[NH+]1CCN(c2ccc(C(F)(F)F)cc2)CC1,O,0,0,7.84,['7.84'],['chembl25']
1488,CCC[NH+]1CCN(c2ccc(C(N)=O)cc2)CC1,O,0,0,7.84,['7.84'],['chembl25']
1489,CCC[NH+]1CCN(c2ccc(C)cc2)CC1,O,0,0,7.92,['7.92'],['chembl25']
1490,CCC[NH+]1CCN(c2ccc(Cl)cc2)CC1,O,0,0,7.83,['7.83'],['chembl25']
1491,CCC[NH+]1CCN(c2ccc(OC)cc2)CC1,O,0,0,7.88,['7.88'],['chembl25']
1492,CCC[NH+]1CCN(c2cccc(C#N)c2)CC1,O,0,0,7.67,['7.67'],['chembl25']
1493,CCC[NH+]1CCN(c2cccc(C(F)(F)F)c2)CC1,O,0,0,7.81,['7.81'],['chembl25']
1494,CCC[NH+]1CCN(c2cccc(C(N)=O)c2)CC1,O,0,0,7.76,['7.76'],['chembl25']
1495,CCC[NH+]1CCN(c2cccc(C)c2)CC1,O,0,0,7.83,['7.83'],['chembl25']
1496,CCC[NH+]1CCN(c2cccc(Cl)c2)CC1,O,0,0,7.83,['7.83'],['chembl25']
1497,CCC[NH+]1CCN(c2cccc(OC)c2)CC1,O,0,0,7.86,['7.86'],['chembl25']
1498,CCC[NH+]1CCN(c2ccccc2)CC1,O,0,0,7.96,['7.96'],['chembl25']
1499,CCC[NH+]1CCN(c2ccccc2C#N)CC1,O,0,0,7.92,['7.92'],['chembl25']
1500,CCC[NH+]1CCN(c2ccccc2C(F)(F)F)CC1,O,0,0,8.8,['8.8'],['chembl25']
1501,CCC[NH+]1CCN(c2ccccc2C(N)=O)CC1,O,0,0,8.14,['8.14'],['chembl25']
1502,CCC[NH+]1CCN(c2ccccc2C)CC1,O,0,0,8.39,['8.39'],['chembl25']
1503,CCC[NH+]1CCN(c2ccccc2Cl)CC1,O,0,0,8.07,['8.07'],['chembl25']
1504,CCC[NH+]1CCN(c2ccccc2OC)CC1,O,0,0,8.29,['8.29'],['chembl25']
1505,CCC[NH+]1C[C@H](CSC)C[C@@H]2c3cccc4[nH]cc(c34)C[C@H]21,O,0,0,8.78,['8.78'],['chembl25']
1506,CCC[NH+]=C(N)[NH+]=C(N)Nc1ccc(Cl)cc1,O,0,0,10.78,['10.78'],['chembl25']
1507,CCC[NH+]=C1Nc2ccccc2C(C)N1,O,0,0,10.7,['10.7'],['chembl25']
1508,CCC[NH2+]C(C)(C)P(=O)(OCC)OCC,O,0,0,6.99,['6.99'],['chembl25']
1509,CCC[NH2+]C(C)C,O,0,0,10.96,['10.96'],['datawarrior']
1510,CCC[NH2+]C(C)C(=O)Nc1ccccc1C,O,0,0,7.673333,['7.673333'],"['datawarrior', 'chembl25']"
1511,CCC[NH2+]C1c2ccccc2C=Cc2ccccc21,O,0,0,8.9,['8.9'],['datawarrior']
1512,CCC[NH2+]CC(=O)Nc1c(C)cccc1C,O,0,0,8.01,['8.01'],['datawarrior']
1513,CCC[NH2+]CC(O)COc1ccccc1C(=O)CCc1ccccc1,O,0,0,9.27,['9.27'],['chembl25']
1514,CCC[NH2+]CCC,O,0,0,11.02,['11.02'],['datawarrior']
1515,CCC[NH2+]Cc1ccc(C)cc1,O,0,0,9.98,['9.98'],['datawarrior']
1516,CCC[NH2+]Cc1ccccc1,O,0,0,9.62,['9.62'],['datawarrior']
1517,CCC[NH3+],O,0,0,10.675,['10.675'],"['datawarrior', 'chembl25']"
1518,CCC[n+]1cccc2c(O)cccc21,O,0,0,6.06,['6.06'],['datawarrior']
1519,CCC[n+]1cccc2cc([O-])ccc21,O,0,0,7.08,['7.08'],['datawarrior']
1520,CCCc1[nH]cc[nH+]1,O,0,0,8.02,['8.02'],['datawarrior']
1521,CCCc1c(-c2ccccc2)[nH][nH]c1=O,O,0,0,8.0,['8.0'],['datawarrior']
1522,CCCc1c(-c2ccccc2)[nH]n(-c2ccccc2)c1=O,O,0,0,7.0,['7.0'],['datawarrior']
1523,CCCc1cc(Cl)cc(Cl)c1O,O,0,0,8.1,['8.1'],['datawarrior']
1524,CCCc1ccc(C)nn1,O,0,0,4.25,['4.25'],['datawarrior']
1525,CCCc1ccc(CCC[NH+](C)C)cc1,O,0,0,10.54,['10.54'],['chembl25']
1526,CCCc1ccc(O)c(-c2cc(CCC)ccc2O)c1,O,0,0,9.3,['9.3'],['chembl25']
1527,CCCc1ccccc1N,O,0,0,4.36,['4.36'],['datawarrior']
1528,CCCc1ccccn1,O,0,0,5.97,['5.97'],"['datawarrior', 'chembl25']"
1529,CCCc1cccnn1,O,0,0,3.59,['3.59'],['datawarrior']
1530,CCCc1ccnc2c1ccc1cccnc12,O,0,0,5.45,['5.45'],['datawarrior']
1531,CCCc1nc2ccc(OCC)cc2[nH]1,O,0,0,6.12,['6.12'],['datawarrior']
1532,CCCc1ncnc2c(O)cccc12,O,0,0,8.82,['8.82'],['datawarrior']
1533,CCCc1nn[n-]n1,O,0,0,5.61,['5.61'],['datawarrior']
1534,CCCc1oc2ccccc2c(=O)c1C(=O)c1cc(I)c([O-])c(I)c1,O,0,0,4.89,['4.89'],['chembl25']
1535,CCCc1oc2ccccc2c(=O)c1C(=O)c1ccc(O)cc1,O,0,0,7.74,['7.74'],['chembl25']
1536,CCCn1ccnc1C,O,0,0,8.2,['8.2'],['datawarrior']
1537,CCCn1ccnc1C=O,O,0,0,5.15,['5.15'],['datawarrior']
1538,CCCn1ccnc1CO,O,0,0,7.04,['7.04'],['datawarrior']
1539,CCCn1cnc2ccccc21,O,0,0,5.46,['5.46'],['datawarrior']
1540,CCCn1cncn1,O,0,0,2.36,['2.36'],['datawarrior']
1541,CCN(C(=O)Cc1ccc(OC)cc1)C1CC[NH+](C(C)C[C@H](NC(=O)C2CCC2)c2ccccc2)CC1,O,0,0,7.8,['7.8'],['chembl25']
1542,CCN(C(=O)Cc1ccc(S(C)(=O)=O)cc1)C1CC[NH+](CC[C@@H](c2cc(F)cc(F)c2)C2CCN(S(C)(=O)=O)CC2)CC1,O,0,0,8.4,['8.4'],['chembl25']
1543,CCN(C(=O)Cc1ccc(S(C)(=O)=O)cc1)C1CC[NH+](CC[C@H](c2ccc(S(C)(=O)=O)cc2)c2cc(F)cc(F)c2)CC1,O,0,0,7.5,['7.5'],['chembl25']
1544,CCN(C)C(=O)Oc1cccc([C@H](C)[NH+](C)C)c1,O,0,0,8.99,['8.99'],['chembl25']
1545,CCN(C)C(=O)[C@H]1C[C@@H](c2ccc(C[NH+]3CCCC3)c(F)c2)C1,O,0,0,9.3,['9.3'],['chembl25']
1546,CCN(C)N,O,0,0,7.3,['7.3'],['datawarrior']
1547,CCN(C)N(C)C,O,0,0,6.38,['6.38'],['datawarrior']
1548,CCN(C)N(C)CC,O,0,0,6.8,['6.8'],['datawarrior']
1549,CCN(C)N(CC)CC,O,0,0,7.3,['7.3'],['datawarrior']
1550,CCN(C)NC,O,0,0,6.85,['6.85'],['datawarrior']
1551,CCN(C)c1ccccc1,O,0,0,6.02,['6.02'],['datawarrior']
1552,CCN(C1=[NH+]CCN1)c1c(Br)cccc1Br,O,0,0,11.1,['11.1'],['chembl25']
1553,CCN(CC)C(=O)C1(c2ccccc2)CC1C[NH3+],O,0,0,9.5,['9.5'],['chembl25']
1554,CCN(CC)C(=O)NO,O,0,0,10.8,['10.8'],['chembl25']
1555,CCN(CC)C(=O)N[C@H]1C[C@@H]2c3cccc4[nH]cc(c34)C[C@H]2[NH+](C)C1,O,0,0,6.8,['6.8'],['chembl25']
1556,CCN(CC)C(=O)[C@@H]1C=C2c3cccc4[nH]cc(c34)C[C@H]2[NH+](C)C1,O,0,0,7.8,['7.8'],['chembl25']
1557,CCN(CC)C(=O)[C@@]1(c2ccc3c(c2)OCO3)C[C@H]1C[NH3+],O,0,0,9.6,['9.6'],['chembl25']
1558,CCN(CC)C(=O)[C@@]1(c2ccccc2)C[C@H]1C[NH3+],O,0,0,9.6,['9.6'],['chembl25']
1559,CCN(CC)C(=O)[C@]1(c2ccccc2)C[C@@H]1C[NH3+],O,0,0,9.7,['9.7'],['chembl25']
1560,CCN(CC)C(=O)[C@]1(c2ccccc2)C[C@H]1C[NH3+],O,0,0,9.6,['9.6'],['chembl25']
1561,CCN(CC)C(=O)c1cn2c(C)c(C)nc2c2c1CCC(c1ccccc1)O2,O,0,0,6.75,['6.75'],['chembl25']
1562,CCN(CC)C(=S)S,O,0,0,3.95,['3.95'],['datawarrior']
1563,CCN(CC)CC#N,O,0,0,4.18,['4.18'],['datawarrior']
1564,CCN(CC)CCC#N,O,0,0,7.62,['7.62'],['datawarrior']
1565,CCN(CC)CCS(=O)(=O)c1ccc(OC)c(OC)c1OC,O,0,0,7.41,['7.41'],['datawarrior']
1566,CCN(CC)CC[NH2+]C(N=O)c1nc(-c2ccccc2)no1,O,0,0,9.85,['9.85'],['chembl25']
1567,CCN(CC)N(C)C,O,0,0,6.88,['6.88'],['datawarrior']
1568,CCN(CC)N(CC)CC,O,0,0,7.31,['7.31'],['datawarrior']
1569,CCN(CC)NC,O,0,0,7.14,['7.14'],['datawarrior']
1570,CCN(CC)S(=O)(=O)c1ccccc1C(=O)[O-],O,0,0,2.96,['2.96'],['datawarrior']
1571,CCN(CC)S(=O)(=O)c1ccsc1C(=O)[O-],O,0,0,2.77,['2.77'],['datawarrior']
1572,CCN(CC)c1ccc(C)c2nc(-c3c(OC)cc(COC)cc3OC)c(C)cc12,O,0,0,5.86,['5.86'],['chembl25']
1573,CCN(CC)c1ccc(C)cc1,O,0,0,7.18,['7.18'],['datawarrior']
1574,CCN(CC)c1ccc(OC)c2nc(-c3c(OC)cc(COC)cc3OC)c(C)cc12,O,0,0,6.01,['6.01'],['chembl25']
1575,CCN(CC)c1ccccc1,O,0,0,6.6,['6.6'],['datawarrior']
1576,CCN(CC)c1ccccc1C,O,0,0,7.18,['7.18'],['datawarrior']
1577,CCN(CC)c1ccccn1,O,0,0,7.32,['7.32'],['chembl25']
1578,CCN(CC)c1nn[n-]n1,O,0,0,6.33,['6.33'],['datawarrior']
1579,CCN(CCC#N)CCC#N,O,0,0,4.55,['4.55'],['datawarrior']
1580,CCN(CCC[NH+]1CCc2cc(OC)ccc2C1)S(=O)(=O)c1ccc(C)cc1,O,0,0,7.4,['7.4'],['chembl25']
1581,CCN(CCC[NH+]1CCc2cc(OC)ccc2C1)S(=O)(=O)c1ccc(OC)cc1,O,0,0,7.4,['7.4'],['chembl25']
1582,CCN(CCC[NH+]1CCc2cc(OC)ccc2C1)S(=O)(=O)c1cccc2ccccc12,O,0,0,7.4,['7.4'],['chembl25']
1583,CCN(CCC[NH+]1CCc2cc(OC)ccc2C1)S(=O)(=O)c1ccccc1,O,0,0,7.4,['7.4'],['chembl25']
1584,CCN(Cc1cc(C(F)(F)F)ccc1-c1cc(CC(=O)[O-])n2cccnc12)C(=O)C1CC1,O,0,0,3.7,['3.7'],['chembl25']
1585,CCN(Cc1cc(C(F)(F)F)ccc1-c1nn(CC(=O)[O-])c2ccccc12)C(=O)C1CC1,O,0,0,2.8,['2.8'],['chembl25']
1586,CCN(N)CC,O,0,0,7.63,['7.63'],['datawarrior']
1587,CCN([O-])CC,O,0,0,5.62,['5.62'],['datawarrior']
1588,CCN(c1ccccc1)C(C)(C)C,O,0,0,8.02,['8.02'],['datawarrior']
1589,CCN1CNS(=O)(=O)c2cc(Cl)ccc21,O,0,0,9.33,['9.33'],['chembl25']
1590,CCN=S1(=O)NC(=O)c2ccccc21,O,0,0,6.9,['6.9'],['chembl25']
1591,CCNC(=O)C1CCCC[NH2+]1,O,0,0,8.6,['8.6'],['datawarrior']
1592,CCNC(=O)CS,O,0,0,8.14,['8.14'],['datawarrior']
1593,CCNC(=O)[C@H]1C[C@@](F)(c2ccc(C[NH+]3CCCC3)c(F)c2)C1,O,0,0,9.2,['9.2'],['chembl25']
1594,CCNC(=O)c1ccc(-c2ccc(-c3ccccc3)n2Cc2cccc(N)n2)cc1,O,0,0,6.86,['6.86'],['chembl25']
1595,CCNC(=O)c1nc(OC)cc(N(C)C)n1,O,0,0,2.9,['2.9'],['chembl25']
1596,CCNC(=S)OC(C)C,O,0,0,11.52,['11.52'],['datawarrior']
1597,CCNN,O,0,0,7.95,['7.95'],['datawarrior']
1598,CCNN(C)C,O,0,0,6.58,['6.58'],['datawarrior']
1599,CCNN(C)CC,O,0,0,6.81,['6.81'],['datawarrior']
1600,CCNN(CC)CC,O,0,0,7.08,['7.08'],['datawarrior']
1601,CCNNC,O,0,0,7.5,['7.5'],['datawarrior']
1602,CCNNCC,O,0,0,7.66,['7.66'],['datawarrior']
1603,CCNc1cc(-c2nc(N)n[nH]2)ccn1,O,0,0,4.485,['4.485'],['chembl25']
1604,CCNc1ccc(C)cc1,O,0,0,5.72,['5.72'],['datawarrior']
1605,CCNc1cccc2ccccc12,O,0,0,4.19,['4.19'],['datawarrior']
1606,CCNc1ccccc1,O,0,0,5.29,['5.29'],['datawarrior']
1607,CCNc1ccccc1C,O,0,0,4.92,['4.92'],['datawarrior']
1608,CCNc1ncnc2c1cnn2C,O,0,0,4.24,['4.24'],['datawarrior']
1609,CCNc1nn[n-]n1,O,0,0,6.12,['6.12'],['datawarrior']
1610,CCOC(=O)/C=C(/C)O,O,0,0,9.51,['9.51'],['datawarrior']
1611,CCOC(=O)C(C)[NH3+],O,0,0,7.8,['7.8'],['datawarrior']
1612,CCOC(=O)C(Cc1ccc(C)cc1)=C(C)O,O,0,0,11.88,['11.88'],['datawarrior']
1613,CCOC(=O)C(Cc1cccc(C)c1)=C(C)O,O,0,0,11.87,['11.87'],['datawarrior']
1614,CCOC(=O)C(Cc1ccccc1)=C(C)O,O,0,0,11.81,['11.81'],['datawarrior']
1615,CCOC(=O)C(N=O)=C(C)O,O,0,0,7.2,['7.2'],['datawarrior']
1616,CCOC(=O)C([NH3+])CC,O,0,0,7.71,['7.71'],['datawarrior']
1617,CCOC(=O)C([NH3+])CC(C)C,O,0,0,7.63,['7.63'],['datawarrior']
1618,CCOC(=O)C1(c2ccccc2)CCN(CC(F)(F)F)CC1,O,0,0,3.13,['3.13'],['chembl25']
1619,CCOC(=O)C1(c2ccccc2)CCN(CC(F)F)CC1,O,0,0,5.23,['5.23'],['chembl25']
1620,CCOC(=O)C1(c2ccccc2)CC[NH+](C)CC1,O,0,0,9.125,['9.125'],"['datawarrior', 'chembl25']"
1621,CCOC(=O)C1(c2ccccc2)CC[NH+](CC)CC1,O,0,0,9.03,['9.03'],"['datawarrior', 'chembl25']"
1622,CCOC(=O)C1(c2ccccc2)CC[NH+](CCF)CC1,O,0,0,7.43,['7.43'],['chembl25']
1623,CCOC(=O)C1C(C[NH+]2CCOC[C@H]2C(=O)[O-])=NC(c2nccs2)=N[C@H]1c1cccc(F)c1Cl,O,0,0,5.7,['5.7'],['chembl25']
1624,CCOC(=O)C1C2c3ccccc3C(c3ccccc32)C1[NH+](C)C,O,0,0,7.48,['7.48'],['chembl25']
1625,CCOC(=O)C1CC2CC[NH+]1CC2,O,0,0,8.8,['8.8'],['datawarrior']
1626,CCOC(=O)C1CCc2nc3c(ccn4ccnc34)cc2C1,O,0,0,4.08,['4.08'],['chembl25']
1627,CCOC(=O)C1C[NH+]2CCC1CC2,O,0,0,9.64,['9.64'],['datawarrior']
1628,CCOC(=O)C=C(C)O,O,0,0,10.66,['10.66'],['datawarrior']
1629,CCOC(=O)CC(C(=O)OCC)n1ccnc1,O,0,0,6.02,['6.02'],['chembl25']
1630,CCOC(=O)CC(CC(=O)OCC)n1ccnc1,O,0,0,6.45,['6.45'],['chembl25']
1631,CCOC(=O)CC([NH2+]C)c1ccccc1,O,0,0,8.23,['8.23'],['datawarrior']
1632,CCOC(=O)CC(c1ccccc1)[NH+](C)C,O,0,0,7.66,['7.66'],['datawarrior']
1633,CCOC(=O)CCCCC[NH3+],O,0,0,10.37,['10.37'],['datawarrior']
1634,CCOC(=O)CCCC[NH3+],O,0,0,10.15,['10.15'],['datawarrior']
1635,CCOC(=O)CCC[NH3+],O,0,0,9.71,['9.71'],['datawarrior']
1636,CCOC(=O)CCCc1ccccn1,O,0,0,5.32,['5.32'],['datawarrior']
1637,CCOC(=O)CC[NH+](C)C,O,0,0,8.6,['8.6'],['datawarrior']
1638,CCOC(=O)CC[NH3+],O,0,0,9.13,['9.13'],['datawarrior']
1639,CCOC(=O)C[C@H]([NH3+])c1ccccc1,O,0,0,8.32,['8.32'],['datawarrior']
1640,CCOC(=O)C[NH3+],O,0,0,7.74,['7.74'],['datawarrior']
1641,CCOC(=O)Cc1ccccn1,O,0,0,4.25,['4.25'],['datawarrior']
1642,CCOC(=O)N(Cc1ccccc1-c1ccccc1)[C@H]1CC[NH2+]C1,O,0,0,9.6,['9.6'],['chembl25']
1643,CCOC(=O)N1CCC(=C2c3ccc(Cl)cc3CCc3cccnc32)CC1,O,0,0,4.58,['4.58'],['chembl25']
1644,CCOC(=O)N1CC[NH+](C)CC1,O,0,0,7.31,['7.31'],['datawarrior']
1645,CCOC(=O)N1CC[NH+](Cc2nc(-c3cccc(Cl)c3)no2)CC1,O,0,0,3.4,['3.4'],['chembl25']
1646,CCOC(=O)N1CC[NH+](Cc2nnc(-c3cc(Cl)ccc3F)o2)CC1,O,0,0,3.5,['3.5'],['chembl25']
1647,CCOC(=O)N1CC[NH+](Cc2nnc(-c3cccc(Cl)c3)o2)CC1,O,0,0,3.5,['3.5'],['chembl25']
1648,CCOC(=O)N1CC[NH+](Cc2noc(-c3cc(Cl)ccc3F)n2)CC1,O,0,0,4.0,['4.0'],['chembl25']
1649,CCOC(=O)N1CC[NH2+]CC1,O,0,0,8.28,['8.28'],['datawarrior']
1650,CCOC(=O)N1CCc2[nH]oc(=O)c2CC1,O,0,0,4.7,['4.7'],['datawarrior']
1651,CCOC(=O)Nc1ccc2c(c1)N(C(=O)CC[NH+]1CCOCC1)c1ccccc1S2,O,0,0,6.4,['6.4'],['chembl25']
1652,CCOC(=O)Nc1ccnc(N2CCc3ccccc3C2)c1,O,0,0,6.4,['6.4'],['chembl25']
1653,CCOC(=O)Nc1nnc(-c2ccccc2)s1,O,0,0,8.2,['8.2'],['datawarrior']
1654,CCOC(=O)[C@@H]([NH3+])CC(C)C,O,0,0,7.63,['7.63'],['datawarrior']
1655,CCOC(=O)[C@@H]([NH3+])CCC(=O)NCCSC(=O)C(C)(C)C,O,0,0,8.9,['8.9'],['chembl25']
1656,CCOC(=O)[C@@H]([NH3+])CCC(=O)NCCSC(=O)c1ccccc1,O,0,0,8.85,['8.85'],['chembl25']
1657,CCOC(=O)[C@@H]([NH3+])CCC(=O)NCCSC(C)=O,O,0,0,8.94,['8.94'],['chembl25']
1658,CCOC(=O)[C@H](C)[NH3+],O,0,0,7.8,['7.8'],['datawarrior']
1659,CCOC(=O)c1c(O)nnn1C,O,0,0,5.54,['5.54'],['chembl25']
1660,CCOC(=O)c1c(O)nnn1Cc1ccccc1,O,0,0,5.38,['5.38'],['chembl25']
1661,CCOC(=O)c1c[nH]c2ccccc2c1=O,O,0,0,9.62,['9.62'],['datawarrior']
1662,CCOC(=O)c1cc(-c2ccccc2)nnc1NCC[NH+]1CCOCC1,O,0,0,6.67,['6.67'],['datawarrior']
1663,CCOC(=O)c1cc(C#N)c(N2CC(C(=O)NS(=O)(=O)Cc3ccc(C)cc3)C2)nc1C,O,0,0,3.4,['3.4'],['chembl25']
1664,CCOC(=O)c1cc(C#N)c(N2CC(C(=O)NS(=O)(=O)Cc3ccccc3)C2)nc1C,O,0,0,3.6,['3.6'],['chembl25']
1665,CCOC(=O)c1cc(C#N)c(N2CCC(C(=O)NS(=O)(=O)Cc3ccc(C)cc3)CC2)nc1C,O,0,0,4.6,['4.6'],['chembl25']
1666,CCOC(=O)c1cc(C#N)c(N2CCC(C(=O)NS(=O)(=O)Cc3ccccc3)CC2)nc1C,O,0,0,4.6,['4.6'],['chembl25']
1667,CCOC(=O)c1cc2cc(F)c([O-])c(F)c2oc1=O,O,0,0,3.8,['3.8'],['chembl25']
1668,CCOC(=O)c1ccc(CC[NH3+])cc1,O,0,0,9.58,['9.58'],['datawarrior']