,Solute SMILES,Solvent SMILES,Solute CAS,Solute IUPAC,pKa (avg),pKa (all),Source
2463,COc1ccc(-c2nnc(C(=O)N3CC(Oc4ccc(C[NH+](C)C)c(C)c4)C3)o2)cc1,O,0,0,9.3,['9.3'],['chembl25']
2464,COc1ccc(-c2nnc(C(=O)N3CC(Oc4ccc(C[NH+](C)C)c(F)c4)C3)o2)cc1,O,0,0,8.6,['8.6'],['chembl25']
2465,COc1ccc(-c2nnc(C(=O)N3CC(Oc4ccc(C[NH+](C)C)cc4)C3)o2)cc1,O,0,0,8.9,['8.9'],['chembl25']
2466,COc1ccc(-c2nnc(C(=O)N3CC(Oc4ccc(C[NH+](C)C)cn4)C3)o2)cc1,O,0,0,8.5,['8.5'],['chembl25']
2467,COc1ccc(-c2nnc(C(=O)N3CC(Oc4ccc(C[NH+](C)CC5(C)COC5)cc4)C3)o2)cc1,O,0,0,8.0,['8.0'],['chembl25']
2468,COc1ccc(-c2nnc(C(=O)N3CC(Oc4ccc(C[NH+]5CC(OC)C5)cc4)C3)o2)cc1,O,0,0,8.5,['8.5'],['chembl25']
2469,COc1ccc(-c2nnc(C(=O)N3CC(Oc4ccc(C[NH+]5CC6(CCCO6)C5)cc4)C3)o2)cc1,O,0,0,8.4,['8.4'],['chembl25']
2470,COc1ccc(-c2nnc(C(=O)N3CC(Oc4ccc(C[NH+]5CC6(CCOC6)C5)cc4)C3)o2)cc1,O,0,0,8.6,['8.6'],['chembl25']
2471,COc1ccc(-c2nnc(C(=O)N3CC(Oc4ccc(C[NH+]5CC6(COC6)C5)cc4)C3)o2)cc1,O,0,0,8.2,['8.2'],['chembl25']
2472,COc1ccc(-c2nnc(C(=O)N3CC(Oc4ccc(C[NH+]5CCC(C)(O)C5)cc4)C3)o2)cc1,O,0,0,9.0,['9.0'],['chembl25']
2473,COc1ccc(-c2nnc(C(=O)N3CC(Oc4ccc(C[NH+]5CCCC5)cc4)C3)o2)cc1,O,0,0,9.9,['9.9'],['chembl25']
2474,COc1ccc(-c2nnc(C(=O)N3CC(Oc4ccc(C[NH+]5CCCC56COC6)cc4)C3)o2)cc1,O,0,0,6.0,['6.0'],['chembl25']
2475,COc1ccc(-c2nnc(C(=O)N3CC(Oc4ccc(C[NH+]5CCCOCC5)cc4)C3)o2)cc1,O,0,0,8.1,['8.1'],['chembl25']
2476,COc1ccc(-c2nnc(C(=O)N3CC(Oc4ccc(C[NH+]5CCOCC5)c(OC)c4)C3)o2)cc1,O,0,0,7.5,['7.5'],['chembl25']
2477,COc1ccc(-c2nnc(C(=O)N3CCC(Oc4ccc(CN5CC[NH+](C)CC5)cc4)CC3)o2)cc1,O,0,0,8.5,['8.5'],['chembl25']
2478,COc1ccc(-c2nnc(C(=O)N3CCC(Oc4ccc(C[NH+]5CC(O)C(C)(C)C5)cc4)CC3)o2)cc1,O,0,0,8.9,['8.9'],['chembl25']
2479,COc1ccc(-c2nnc(C(=O)N3CCC(Oc4ccc(C[NH+]5CCC(O)C5)cc4)CC3)o2)cc1,O,0,0,8.9,['8.9'],['chembl25']
2480,COc1ccc(-c2nnc(C(=O)N3CCC(Oc4ccc(C[NH+]5CCCC5)cn4)CC3)o2)cc1,O,0,0,9.2,['9.2'],['chembl25']
2481,COc1ccc(-c2nnc(C(=O)N3CCC(Oc4ccc(C[NH+]5CCOCC5)cc4)CC3)o2)cc1,O,0,0,6.5,['6.5'],['chembl25']
2482,COc1ccc(-n2[nH]c(C)cc2=O)cc1,O,0,0,7.06,['7.06'],['chembl25']
2483,COc1ccc(-n2cc3nc(-c4ccccc4C)n(CC4CCC[NH+](C(C)C)C4)c(=O)c3n2)cc1,O,0,0,10.0,['10.0'],['chembl25']
2484,COc1ccc(/C=C/C(=O)[O-])cc1,O,0,0,4.6,['4.6'],['datawarrior']
2485,COc1ccc(/C=C/C(=O)[O-])cc1OC,O,0,0,4.55,['4.55'],['chembl25']
2486,COc1ccc(/C=C2/SC(=S)[N-]C2=O)cc1,O,0,0,5.8,['5.8'],['chembl25']
2487,COc1ccc(/C=C\C(=O)[O-])cc1,O,0,0,4.03,['4.03'],['datawarrior']
2488,COc1ccc(/N=N/c2c(N)n[nH]c2N)cc1,O,0,0,3.39,['3.39'],['datawarrior']
2489,COc1ccc(/N=N/c2ccncc2)cc1,O,0,0,4.53,['4.53'],['datawarrior']
2490,COc1ccc(/[NH+]=C/N(C)C)cc1,O,0,0,9.35,['9.35'],['datawarrior']
2491,COc1ccc(C(=N)c2ccccc2)c(OC)c1,O,0,0,8.3,['8.3'],['datawarrior']
2492,COc1ccc(C(=O)C(N=O)SCC[N+](C)(C)C)cc1,O,0,0,7.71,['7.71'],['chembl25']
2493,COc1ccc(C(=O)N[C@@H]2CCC[C@@H]3CC[NH+](C)C[C@@H]32)cc1,O,0,0,9.19,['9.19'],['chembl25']
2494,COc1ccc(C(=O)N[C@@H]2CCC[C@@H]3CC[NH+](C)C[C@H]32)cc1OC,O,0,0,8.89,['8.89'],['chembl25']
2495,COc1ccc(C(=O)Nc2ccccc2CCC2CCCC[NH+]2C)cc1,O,0,0,9.27,['9.27'],['chembl25']
2496,COc1ccc(C(=O)O[C@H]2O[C@@H](C(=O)[O-])[C@H](O)[C@@H](O)[C@@H]2O)cc1OC,O,0,0,3.47,['3.47'],['datawarrior']
2497,COc1ccc(C(=O)[O-])c(C)c1,O,0,0,4.54,['4.54'],['datawarrior']
2498,COc1ccc(C(=O)[O-])cc1,O,0,0,4.45,['4.45'],['datawarrior']
2499,COc1ccc(C(=O)[O-])cc1-c1ccc(C#CCO)s1,O,0,0,4.2,['4.2'],['chembl25']
2500,COc1ccc(C(=O)[O-])cc1C,O,0,0,4.35,['4.35'],['datawarrior']
2501,COc1ccc(C(=O)[S-])cc1,O,0,0,2.79,['2.79'],['datawarrior']
2502,COc1ccc(C(=O)c2ccc3n2CCC3C(=O)[O-])cc1,O,0,0,3.55,['3.55'],['chembl25']
2503,COc1ccc(C(=O)c2coc(S(N)(=O)=O)c2)cc1,O,0,0,9.5,['9.5'],['chembl25']
2504,COc1ccc(C(=O)c2csc(S(N)(=O)=O)c2)cc1,O,0,0,8.2,['8.2'],['chembl25']
2505,COc1ccc(C(=S)Nc2ccc(Br)cc2)cc1,O,0,0,10.95,['10.95'],['datawarrior']
2506,COc1ccc(C(=S)Nc2ccc(C)cc2)cc1,O,0,0,11.81,['11.81'],['datawarrior']
2507,COc1ccc(C(=S)Nc2ccc(Cl)c(Cl)c2)cc1,O,0,0,10.14,['10.14'],['datawarrior']
2508,COc1ccc(C(=S)Nc2ccc(Cl)cc2)cc1,O,0,0,10.93,['10.93'],['datawarrior']
2509,COc1ccc(C(=S)Nc2ccccc2)cc1,O,0,0,11.27,['11.27'],['datawarrior']
2510,COc1ccc(C(C#N)N2CCCC2)cc1OC,O,0,0,4.3,['4.3'],['chembl25']
2511,COc1ccc(C(C#N)N2CCCCC2)cc1OC,O,0,0,4.0,['4.0'],['chembl25']
2512,COc1ccc(C(C#N)N2CC[NH+](C)CC2)cc1OC,O,0,0,7.6,['7.6'],['chembl25']
2513,COc1ccc(C(CC(F)(F)CN)(c2ccccc2)c2ccc(C)cc2)cc1,O,0,0,7.11,['7.11'],['chembl25']
2514,COc1ccc(C(CC(F)C[NH3+])(c2ccccc2)c2ccc(C)cc2)cc1,O,0,0,7.86,['7.86'],['chembl25']
2515,COc1ccc(C(CCC(N)C(F)(F)F)(c2ccccc2)c2ccc(C)cc2)cc1,O,0,0,4.63,['4.63'],['chembl25']
2516,COc1ccc(C(CCC[NH3+])(c2ccccc2)c2ccccc2)cc1,O,0,0,9.86,['9.86'],['chembl25']
2517,COc1ccc(C(C[NH+](C)C)C2(O)CCCCC2)cc1,O,0,0,9.671429,['9.671429'],['chembl25']
2518,COc1ccc(C(O)C[NH2+]C(C)CC2=C(C)C(C)(C)CC2)cc1,O,0,0,8.79,['8.79'],['datawarrior']
2519,COc1ccc(C(O)C[NH3+])cc1,O,0,0,9.02,['9.02'],['datawarrior']
2520,COc1ccc(C)c(C(=O)[O-])c1,O,0,0,3.84,['3.84'],['datawarrior']
2521,COc1ccc(C2(c3cccc(-c4cncnc4)c3)CCC(N)=[NH+]2)cc1,O,0,0,10.0,['10.0'],['chembl25']
2522,COc1ccc(C2(c3cccc(-c4cncnc4)c3)N=C(C(C)C)C(N)=[NH+]2)cc1,O,0,0,5.3,['5.3'],['chembl25']
2523,COc1ccc(C2(c3cccc(-c4cncnc4)c3)N=C(C)C(N)=[NH+]2)cc1,O,0,0,5.2,['5.2'],['chembl25']
2524,COc1ccc(C2(c3cccc(-c4cncnc4)c3)[NH+]=C(N)N3CC(F)(F)C[NH+]=C32)cc1,O,0,0,6.8,['6.8'],['chembl25']
2525,COc1ccc(C2(c3cccc(-c4cncnc4)c3)[NH+]=C(N)c3c(F)cccc32)cc1,O,0,0,8.2,['8.2'],['chembl25']
2526,COc1ccc(C2(c3cccc(-c4cncnc4)c3)[NH+]=C(N)n3nc(C)cc32)cc1,O,0,0,5.4,['5.4'],['chembl25']
2527,COc1ccc(C2CCC[NH+]2C)cc1,O,0,0,8.9,['8.9'],['datawarrior']
2528,COc1ccc(C2C[NH2+]2)cc1,O,0,0,8.7,['8.7'],['datawarrior']
2529,COc1ccc(C2[NH2+]CCS2)cc1,O,0,0,5.45,['5.45'],['datawarrior']
2530,COc1ccc(C=O)cc1C(=O)N[C@H]1C[C@@H]2CC[C@H](C1)[NH+]2Cc1ccccc1,O,0,0,8.74,['8.74'],['datawarrior']
2531,COc1ccc(C=O)cc1O,O,0,0,8.89,['8.89'],['datawarrior']
2532,COc1ccc(CC(=O)NC2CC[NH+](CC[C@H](NC(=O)C3CCC3)c3ccccc3)CC2)cc1,O,0,0,8.2,['8.2'],['chembl25']
2533,COc1ccc(CC(=O)[O-])cc1,O,0,0,4.36,['4.36'],['datawarrior']
2534,COc1ccc(CC(C(C)=O)=C(C)O)cc1,O,0,0,10.57,['10.57'],['datawarrior']
2535,COc1ccc(CC(C)[NH3+])cc1,O,0,0,9.53,['9.53'],['datawarrior']
2536,COc1ccc(CC2=NC(=O)NC2=O)cc1,O,0,0,8.9,['8.9'],['chembl25']
2537,COc1ccc(CCC(=O)[O-])cc1,O,0,0,4.72,['4.72'],['datawarrior']
2538,COc1ccc(CCC[NH+](C)C)cc1,O,0,0,10.91,['10.91'],['chembl25']
2539,COc1ccc(CCC[NH+](C)C)cc1Cl,O,0,0,10.76,['10.76'],['chembl25']
2540,COc1ccc(CC[NH+](C)CCCC(C#N)(c2ccc(OC)c(OC)c2)C(C)C)cc1OC,O,0,0,8.881667,['8.881667'],['chembl25']
2541,COc1ccc(CC[NH+](C)CCC[C@](C#N)(c2ccc(OC)c(OC)c2)C(C)C)cc1OC,O,0,0,8.66,['8.66'],['chembl25']
2542,COc1ccc(CC[NH2+]CC(O)COc2ccc(-c3ncco3)cc2)cc1OC,O,0,0,8.4,['8.4'],['chembl25']
2543,COc1ccc(CC[NH2+]CC(O)COc2cccc(C)c2)cc1OC,O,0,0,8.4,['8.4'],['chembl25']
2544,COc1ccc(CC[NH2+]CCCC(C#N)(c2ccc(OC)c(OC)c2)C(C)C)cc1OC,O,0,0,9.87,['9.87'],['chembl25']
2545,COc1ccc(CC[NH3+])cc1,O,0,0,9.79,['9.79'],['datawarrior']
2546,COc1ccc(CC[NH3+])cc1OC,O,0,0,9.87,['9.87'],['datawarrior']
2547,COc1ccc(CNC(=O)N2[C@@H](C)c3ccncc3N(CCC(C)C)C[C@H]2C)cc1,O,0,0,6.4,['6.4'],['chembl25']
2548,COc1ccc(CON)cc1,O,0,0,4.42,['4.42'],['datawarrior']
2549,COc1ccc(COc2cccc(NC(=O)C3CCN(c4cc[nH+]cc4)CC3)c2)cc1OC,O,0,0,9.2,['9.2'],['chembl25']
2550,COc1ccc(C[C@H](C)[NH3+])cc1OC,O,0,0,9.6,['9.6'],['datawarrior']
2551,COc1ccc(C[NH+]=C(N)C(Cl)(Cl)Br)cc1,O,0,0,6.15,['6.15'],['chembl25']
2552,COc1ccc(C[NH+]=C(N)C(Cl)(Cl)Cl)cc1,O,0,0,6.0,['6.0'],['chembl25']
2553,COc1ccc(C[NH3+])cc1,O,0,0,9.67,['9.67'],['datawarrior']
2554,COc1ccc(C[NH3+])cc1OC,O,0,0,9.39,['9.39'],['datawarrior']
2555,COc1ccc(Cc2c3ccccc3nc3ccccc23)cc1,O,0,0,7.94,['7.94'],['chembl25']
2556,COc1ccc(Cc2cc(=O)c3ccc(O)cc3o2)cc1,O,0,0,7.35,['7.35'],['chembl25']
2557,COc1ccc(Cc2nccc3cc(OC)c(OC)cc23)cc1OC,O,0,0,6.25,['6.25'],['chembl25']
2558,COc1ccc(Cl)c(Nc2ccccc2CC(=O)[O-])c1Cl,O,0,0,3.95,['3.95'],['chembl25']
2559,COc1ccc(Cl)c2cccnc12,O,0,0,4.13,['4.13'],['datawarrior']
2560,COc1ccc(Cl)cc1C(=O)NCCc1ccc(S(=O)(=O)NC(=O)NC2CCCCC2)cc1,O,0,0,5.3,['5.3'],['chembl25']
2561,COc1ccc(Cl)cc1Nc1cc(C(F)(F)F)c(C(=O)NCC2CCC2)cn1,O,0,0,2.63,['2.63'],['chembl25']
2562,COc1ccc(Cl)cc1Nc1cc(C(F)(F)F)c(C(=O)NCC2CCOCC2)cn1,O,0,0,2.63,['2.63'],['chembl25']
2563,COc1ccc(Cl)cc1S(=O)(=O)NC(=O)NC(C)C,O,0,0,5.65,['5.65'],['chembl25']
2564,COc1ccc(Cl)cc1S(=O)(=O)NC(=O)Nc1ccccc1,O,0,0,4.5,['4.5'],['chembl25']
2565,COc1ccc(Cl)cc1S(=O)(=O)NC(=S)NC(C)C,O,0,0,5.74,['5.74'],['chembl25']
2566,COc1ccc(Cn2c(=O)n3ncnc3c3c4c(sc32)C[NH+](CC2CCOCC2)CC4)cc1,O,0,0,6.6,['6.6'],['chembl25']
2567,COc1ccc(Cn2cc(-c3nn[n-]n3)c(=O)c3c(F)ccc(F)c32)cc1,O,0,0,5.4,['5.4'],['chembl25']
2568,COc1ccc(Cn2cc(C(=O)NC(C)=O)c(=O)c3c(F)ccc(F)c32)cc1,O,0,0,8.0,['8.0'],['chembl25']
2569,COc1ccc(Cn2cc(C(=O)NO)c(=O)c3c(F)ccc(F)c32)cc1,O,0,0,8.0,['8.0'],['chembl25']
2570,COc1ccc(Cn2cc(C(=O)NS(C)(=O)=O)c(=O)c3c(F)ccc(F)c32)cc1,O,0,0,4.5,['4.5'],['chembl25']
2571,COc1ccc(Cn2cc(C(=O)[O-])c(=O)c3c(F)ccc(F)c32)cc1,O,0,0,6.0,['6.0'],['chembl25']
2572,COc1ccc(F)cc1C(=O)N[C@H]1C[C@@H]2CC[C@H](C1)[NH+]2Cc1ccccc1,O,0,0,8.82,['8.82'],['datawarrior']
2573,COc1ccc(F)cc1S(=O)(=O)NC(=O)NC(C)C,O,0,0,5.52,['5.52'],['chembl25']
2574,COc1ccc(I)cc1C(=O)N[C@H]1C[C@@H]2CC[C@H](C1)[NH+]2Cc1ccccc1,O,0,0,8.79,['8.79'],['datawarrior']
2575,COc1ccc(N(C)C)cc1,O,0,0,5.86,['5.86'],['datawarrior']
2576,COc1ccc(N(Cc2nn[n-]n2)Cc2ccc(Cl)cc2Cl)cc1,O,0,0,4.29,['4.29'],['chembl25']
2577,COc1ccc(N(Cc2nn[n-]n2)Cc2ccc(F)cc2F)cc1,O,0,0,4.31,['4.31'],['chembl25']
2578,COc1ccc(N)cc1,O,0,0,5.076667,['5.076667'],"['datawarrior', 'chembl25']"
2579,COc1ccc(N)cc1Br,O,0,0,4.09,['4.09'],['datawarrior']
2580,COc1ccc(N)cn1,O,0,0,4.24,['4.24'],['datawarrior']
2581,COc1ccc(N2CC[NH+](CCCCNC(=O)c3ccc4nonc4c3)CC2)cc1,O,0,0,7.51,['7.51'],['chembl25']
2582,COc1ccc(NC(=O)/C=C/C[NH+](C)C)cc1Nc1ncc(Cl)c(-c2cnn3ccccc23)n1,O,0,0,7.8,['7.8'],['chembl25']
2583,COc1ccc(NC(=O)C2=C(O)C(=O)N(C)C2)cc1,O,0,0,5.84,['5.84'],['chembl25']
2584,COc1ccc(NC(=O)C2=CCC[NH+](C)C2)cc1Nc1ncc(Cl)c(-c2cnn3ccccc23)n1,O,0,0,7.9,['7.9'],['chembl25']
2585,COc1ccc(NC(=O)C2=CC[NH+](C)CC2)cc1Nc1ncc(Cl)c(-c2cnn3ccccc23)n1,O,0,0,7.4,['7.4'],['chembl25']
2586,COc1ccc(NC(=O)NO)cc1,O,0,0,10.2,['10.2'],['chembl25']
2587,COc1ccc(NC(=O)c2cccc(S(=O)(=O)N3CCOCC3)c2)c(C(=O)[O-])c1,O,0,0,3.12,['3.12'],['chembl25']
2588,COc1ccc(NC(=S)c2ccc(Cl)cc2)cc1,O,0,0,11.26,['11.26'],['datawarrior']
2589,COc1ccc(NC(=S)c2ccc(OC)cc2)cc1,O,0,0,11.85,['11.85'],['datawarrior']
2590,COc1ccc(NC(=S)c2cccc(Br)c2)cc1,O,0,0,10.99,['10.99'],['datawarrior']
2591,COc1ccc(NC(=S)c2ccccc2)cc1,O,0,0,11.36,['11.36'],['datawarrior']
2592,COc1ccc(NC(C)=S)cc1,O,0,0,11.96,['11.96'],['datawarrior']
2593,COc1ccc(NC=S)cc1,O,0,0,11.74,['11.74'],['datawarrior']
2594,COc1ccc(NCO)cc1,O,0,0,3.72,['3.72'],['datawarrior']
2595,COc1ccc(NS(=O)(=O)c2ccccc2)cc1,O,0,0,8.88,['8.88'],['datawarrior']
2596,COc1ccc(Nc2c3ccccc3nc3ccccc23)cc1,O,0,0,7.94,['7.94'],['chembl25']
2597,COc1ccc(Nc2ccc(N)cc2)cc1,O,0,0,5.9,['5.9'],['datawarrior']
2598,COc1ccc(O)c(Br)c1,O,0,0,8.62,['8.62'],['datawarrior']
2599,COc1ccc(O)c(C(=O)[O-])c1,O,0,0,3.9,['3.9'],['chembl25']
2600,COc1ccc(O)c(C)c1,O,0,0,10.16,['10.16'],['datawarrior']
2601,COc1ccc(O)c(CN=NC(=S)Cc2ccccc2)c1,O,0,0,6.6,['6.6'],['chembl25']
2602,COc1ccc(O)c(CN=NS(=O)(=O)Cc2ccccc2)c1,O,0,0,6.5,['6.5'],['chembl25']
2603,COc1ccc(O)cc1,O,0,0,10.24,['10.24'],['datawarrior']
2604,COc1ccc(O)cc1Br,O,0,0,9.09,['9.09'],['datawarrior']
2605,COc1ccc(O)cc1C,O,0,0,10.24,['10.24'],['datawarrior']
2606,COc1ccc(OC(=O)N(C)CC[NH3+])cc1,O,0,0,8.9,['8.9'],['chembl25']
2607,COc1ccc(OC(=O)NCCC[NH3+])cc1,O,0,0,9.6,['9.6'],['chembl25']
2608,COc1ccc(OC(=O)NCC[NH3+])cc1,O,0,0,8.65,['8.65'],['chembl25']
2609,COc1ccc(OC(=O)Nc2cc(Cl)ccc2O)cc1,O,0,0,10.21,['10.21'],['chembl25']
2610,COc1ccc(OC)c(N)c1,O,0,0,3.72,['3.72'],['datawarrior']
2611,COc1ccc(OC)c(NC2=[NH+]CCN2)c1,O,0,0,10.15,['10.15'],['chembl25']
2612,COc1ccc(OC)c2c1nc(C)n2C,O,0,0,6.12,['6.12'],['datawarrior']
2613,COc1ccc(OC)c2c1nc(CCl)n2C,O,0,0,4.1,['4.1'],['datawarrior']
2614,COc1ccc(OC)c2c1nc(CO)n2C,O,0,0,5.24,['5.24'],['datawarrior']
2615,COc1ccc(S(=O)(=O)CCN2CCCCC2)c(OC)c1OC,O,0,0,7.24,['7.24'],['datawarrior']
2616,COc1ccc(S(=O)(=O)CCN2CCOCC2)c(OC)c1OC,O,0,0,4.89,['4.89'],['datawarrior']
2617,COc1ccc(S(=O)(=O)NCc2ccccc2)cc1,O,0,0,11.53,['11.53'],['datawarrior']
2618,COc1ccc(S(=O)(=O)Nc2ccc(C)cc2)cc1,O,0,0,9.8,['9.8'],['chembl25']
2619,COc1ccc(S(=O)(=O)Nc2ccc(Cl)cc2)cc1,O,0,0,9.19,['9.19'],['chembl25']
2620,COc1ccc(S(=O)(=O)Nc2ccc(F)cc2)cc1,O,0,0,9.32,['9.32'],['chembl25']
2621,COc1ccc(S(=O)(=O)Nc2ccccc2)cc1,O,0,0,9.04,['9.04'],"['datawarrior', 'chembl25']"
2622,COc1ccc(S(=O)(=O)c2ccc(F)cc2)c(Cc2c3c(n(CC(=O)[O-])c2C)CCNC3=O)c1,O,0,0,3.1,['3.1'],['chembl25']
2623,COc1ccc(S(=O)(=O)c2coc(S(N)(=O)=O)c2)cc1,O,0,0,6.32,['6.32'],['chembl25']
2624,COc1ccc(S(=O)(=O)c2csc(S(N)(=O)=O)c2)cc1,O,0,0,8.78,['8.78'],['chembl25']
2625,COc1ccc(S(N)(=O)=O)cc1,O,0,0,9.93,['9.93'],['datawarrior']
2626,COc1ccc([C@@H]2Sc3ccccc3N(CC[NH+](C)C)C(=O)[C@@H]2OC(C)=O)cc1,O,0,0,7.976,['7.976'],['chembl25']
2627,COc1ccc([C@@]2(F)C[C@@H]2[NH3+])cc1,O,0,0,7.5,['7.5'],['chembl25']
2628,COc1ccc([C@@]2(F)C[C@@H]2[NH3+])cc1OC,O,0,0,7.4,['7.4'],['chembl25']
2629,COc1ccc([C@H]2C[C@@H]2C(=O)[O-])cc1,O,0,0,4.62,['4.62'],['datawarrior']
2630,COc1ccc([NH+]=C(N)c2cccs2)cc1CSC1CCCC1,O,0,0,8.1,['8.1'],['chembl25']
2631,COc1ccc([O-])c(=O)cc1,O,0,0,7.75,['7.75'],['datawarrior']
2632,COc1ccc([S-])cc1,O,0,0,6.76,['6.76'],['datawarrior']
2633,COc1ccc2[nH+]c3c(c(N4CCOCC4)c2c1)CCC3,O,0,0,7.14,['7.14'],['datawarrior']
2634,COc1ccc2[nH+]ccc(N)c2c1,O,0,0,8.94,['8.94'],['datawarrior']
2635,COc1ccc2[nH]c3c(C)nccc3c2c1,O,0,0,7.09,['7.09'],['datawarrior']
2636,COc1ccc2[nH]c3c(c2c1)CCN=C3C,O,0,0,9.21,['9.21'],['datawarrior']
2637,COc1ccc2[nH]cc(C3=CC[NH+](Cc4ccccc4)CC3)c2c1,O,0,0,7.7,['7.7'],['chembl25']
2638,COc1ccc2[nH]cc(CC(C)[NH3+])c2c1,O,0,0,10.3,['10.3'],['datawarrior']
2639,COc1ccc2c(c1)C(=O)N(CCc1ccc(S(=O)(=O)NC(=O)NC3CCCCC3)cc1)C(=O)C2(C)C,O,0,0,5.0,['5.0'],['chembl25']
2640,COc1ccc2c(c1)C(O)[NH+](C)C=C2,O,0,0,2.15,['2.15'],['datawarrior']
2641,COc1ccc2c(c1)C([P+](c1ccccc1)(c1ccccc1)c1ccccc1)c1ccccc1-2,O,0,0,9.09,['9.09'],['datawarrior']
2642,COc1ccc2c(c1)CC(C)N2,O,0,0,6.2,['6.2'],['datawarrior']
2643,COc1ccc2c(c1)CCN2,O,0,0,6.1,['6.1'],['datawarrior']
2644,COc1ccc2c(c1)N(CCC[NH+](C)C)c1ccccc1S2,O,0,0,9.41,['9.41'],['chembl25']
2645,COc1ccc2c(c1)N(CC[NH+](C)C)CCO2,O,0,0,8.6,['8.6'],['chembl25']
2646,COc1ccc2c(c1)N(C[C@H](C)C[NH+](C)C)c1ccccc1S2,O,0,0,9.195,['9.195'],['chembl25']
2647,COc1ccc2c(c1)NCCN2,O,0,0,5.26,['5.26'],['datawarrior']
2648,COc1ccc2c(c1)[C@]13CCCC[C@@H]1[C@H](C2)[NH+](C)CC3,O,0,0,9.185,['9.185'],['chembl25']
2649,COc1ccc2c(c1)[nH]c1c(C)nccc12,O,0,0,7.615,['7.615'],"['datawarrior', 'chembl25']"
2650,COc1ccc2c(c1)c(-c1ccc(=O)n(Cc3ccccc3)n1)c(C)n2CC(=O)[O-],O,0,0,4.07,['4.07'],['chembl25']
2651,COc1ccc2c(c1)c(CC(=O)[O-])c(C)n2C(=O)c1ccc(Cl)cc1,O,0,0,4.415,['4.415'],['chembl25']
2652,COc1ccc2c(c1)c(CC[NH+](C)C)cn2C,O,0,0,9.2,['9.2'],['chembl25']
2653,COc1ccc2c(c1)nnn2O,O,0,0,5.07,['5.07'],['datawarrior']
2654,COc1ccc2c(c1OC(C)=O)[C@]13CC[NH+](C)[C@H](C2)[C@@H]1CC[C@H](OC)C3,O,0,0,9.31,['9.31'],['datawarrior']
2655,COc1ccc2c(c1OC)C(=O)O[C@@H]2[C@H]1c2c(cc3c(c2OC)OCO3)CC[NH+]1C,O,0,0,6.2,['6.2'],['chembl25']
2656,COc1ccc2c(c[n+](C)c3c4cc5c(cc4ccc23)OCO5)c1O,O,0,0,5.3,['5.3'],['chembl25']
2657,COc1ccc2c3c([nH]c2c1)C(C)=NCC3,O,0,0,9.72,['9.72'],['datawarrior']
2658,COc1ccc2c3c1O[C@@H]1C(=O)CC[C@]4(O)[C@H](C2)[NH+](C)CC[C@@]314,O,0,0,8.6,['8.6'],['datawarrior']
2659,COc1ccc2c3c1O[C@H]1C(=O)CC[C@@]4(O)[C@@H](C2)[NH+](C)CC[C@]314,O,0,0,8.815,['8.815'],['chembl25']
2660,COc1ccc2c3c1O[C@H]1C(=O)CC[C@H]4[C@@H](C2)[NH+](C)CC[C@]314,O,0,0,8.05,['8.05'],"['datawarrior', 'chembl25']"
2661,COc1ccc2c3c1O[C@H]1CCC[C@H]4[C@@H](C2)[NH+](C)CC[C@]314,O,0,0,8.83,['8.83'],['datawarrior']
2662,COc1ccc2c3c1O[C@H]1CCC[C@H]4[C@@H]([C@@H]2O)[NH+](C)CC[C@]314,O,0,0,9.41,['9.41'],['datawarrior']
2663,COc1ccc2c3c1O[C@H]1CCC[C@H]4[C@@H]([C@H]2O)[NH+](C)CC[C@]314,O,0,0,7.71,['7.71'],['datawarrior']
2664,COc1ccc2c3c1O[C@H]1CCC[C@H]4[C@H]([NH2+]CC[C@]314)[C@@H]2O,O,0,0,9.17,['9.17'],['datawarrior']
2665,COc1ccc2c3c1O[C@H]1CCC[C@H]4[C@H]([NH2+]CC[C@]314)[C@H]2O,O,0,0,8.72,['8.72'],['datawarrior']
2666,COc1ccc2c3c1O[C@H]1C[C@@H](O)C=C[C@@]31CC[NH+](C)C2,O,0,0,8.32,['8.32'],['chembl25']
2667,COc1ccc2c3c1O[C@H]1[C@@H](O)C=C[C@H]4[C@@H](C2)N(CCC#N)CC[C@]314,O,0,0,5.68,['5.68'],['datawarrior']
2668,COc1ccc2c3c1O[C@H]1[C@@H](O)C=C[C@H]4[C@@H](C2)[NH+](C)CC[C@]314,O,0,0,8.161667,['8.161667'],"['datawarrior', 'chembl25']"
2669,COc1ccc2c3c1O[C@H]1[C@@H](O)C=C[C@H]4[C@@H](C2)[NH2+]CC[C@]314,O,0,0,9.23,['9.23'],['chembl25']
2670,COc1ccc2c3c1O[C@H]1[C@@H](O)C=C[C@H]4[C@@H]([C@H]2O)[NH+](C)CC[C@@]341,O,0,0,7.12,['7.12'],['datawarrior']
2671,COc1ccc2c3c1O[C@H]1[C@@H](O)CC[C@H]4[C@@H](C2)[NH+](C)CC[C@]314,O,0,0,8.71,['8.71'],['datawarrior']
2672,COc1ccc2cc(C(C)C(=O)[O-])ccc2c1,O,0,0,4.57,['4.57'],['datawarrior']
2673,COc1ccc2cc(O)ccc2c1,O,0,0,9.64,['9.64'],['datawarrior']
2674,COc1ccc2cc([C@@H](C)C(=O)[O-])ccc2c1,O,0,0,4.13,['4.13'],['datawarrior']
2675,COc1ccc2cc([C@H](C)C(=O)[O-])ccc2c1,O,0,0,4.17125,['4.17125'],['chembl25']
2676,COc1ccc2cc3[n+](cc2c1O)CCc1cc2c(cc1-3)OCO2,O,0,0,5.0,['5.0'],['chembl25']
2677,COc1ccc2cc3[n+](cc2c1OC)CCc1cc(O)c(O)cc1-3,O,0,0,9.4,['9.4'],['chembl25']
2678,COc1ccc2ccc(S(=O)(=O)N(C)[C@H]3CCN(Cc4ccc5ncnc(N)c5c4)C3=O)cc2c1,O,0,0,5.3,['5.3'],['chembl25']
2679,COc1ccc2nc3ccccc3cc2c1,O,0,0,3.82,['3.82'],['datawarrior']
2680,COc1ccc2ncccc2c1,O,0,0,5.05,['5.05'],['datawarrior']
2681,COc1cccc(-c2cccc(C3(C)CCSC(N)=[NH+]3)c2)c1,O,0,0,7.0,['7.0'],['chembl25']
2682,COc1cccc(-c2cccc(C3(C)COCC(N)=[NH+]3)c2)c1,O,0,0,9.8,['9.8'],['chembl25']
2683,COc1cccc(-c2cccc(C3(C)CSCC(N)=[NH+]3)c2)c1,O,0,0,10.5,['10.5'],['chembl25']
2684,COc1cccc(-c2cccc(C3(C)N=C(C)C(N)=[NH+]3)c2)c1,O,0,0,6.5,['6.5'],['chembl25']
2685,COc1cccc(-c2cccc(C3(C)[NH+]=C(N)CCO3)c2)c1,O,0,0,9.3,['9.3'],['chembl25']
2686,COc1cccc(-c2cccc(C3(C)[NH+]=C(N)CCS3)c2)c1,O,0,0,9.3,['9.3'],['chembl25']
2687,COc1cccc(-c2cccc(C3(C)[NH+]=C(N)CN3C(C)=O)c2)c1,O,0,0,6.5,['6.5'],['chembl25']
2688,COc1cccc(-c2cccc(C3(C)[NH+]=C(N)CS3)c2)c1,O,0,0,6.9,['6.9'],['chembl25']
2689,COc1cccc(-c2cccc(C3(C4CCN(C(C)=O)CC4)N=C(C)C(N)=[NH+]3)c2)c1,O,0,0,5.7,['5.7'],['chembl25']
2690,COc1cccc(-c2cccc(C3(C4CCOCC4)N=C(C)C(N)=[NH+]3)c2)c1,O,0,0,6.0,['6.0'],['chembl25']
2691,COc1cccc(-c2cn(Cc3c(F)cccc3C(F)(F)F)c(=O)n(C[C@H]([NH2+]CCCC(N)=O)c3ccccc3)c2=O)c1F,O,0,0,7.65,['7.65'],['chembl25']
2692,COc1cccc(-c2nn[n-]n2)c1,O,0,0,3.91,['3.91'],['datawarrior']
2693,COc1cccc(-n2cc3nc(-c4ccccc4C)n(CC4CCC[NH+](C(C)C)C4)c(=O)c3n2)c1,O,0,0,10.0,['10.0'],['chembl25']
2694,COc1cccc(/C=C/C(=O)[O-])c1,O,0,0,4.38,['4.38'],['datawarrior']
2695,COc1cccc(/[NH+]=C/N(C)C)c1,O,0,0,8.6,['8.6'],['datawarrior']
2696,COc1cccc(=O)[nH]1,O,0,0,9.77,['9.77'],['datawarrior']
2697,COc1cccc(C(=N)c2ccccc2)c1,O,0,0,6.59,['6.59'],['datawarrior']
2698,COc1cccc(C(=O)CC[NH+]2CCOCC2)c1,O,0,0,7.1,['7.1'],['datawarrior']
2699,COc1cccc(C(=O)NC2CC3CCC(C2)[NH+]3Cc2ccccc2)c1OC,O,0,0,8.91,['8.91'],['datawarrior']
2700,COc1cccc(C(=O)NCC[NH+]2CCN(c3ccc(C#N)cc3)CC2)c1,O,0,0,6.41,['6.41'],['chembl25']
2701,COc1cccc(C(=O)NCC[NH+]2CCN(c3ccc(C)cc3)CC2)c1,O,0,0,6.46,['6.46'],['chembl25']
2702,COc1cccc(C(=O)NCC[NH+]2CCN(c3ccc(Cl)cc3)CC2)c1,O,0,0,6.19,['6.19'],['chembl25']
2703,COc1cccc(C(=O)NCC[NH+]2CCN(c3ncccc3C#N)CC2)c1,O,0,0,6.71,['6.71'],['chembl25']
2704,COc1cccc(C(=O)NCC[NH+]2CCN(c3noc4ccccc34)CC2)c1,O,0,0,6.24,['6.24'],['chembl25']
2705,COc1cccc(C(=O)N[C@@H]2C[C@@H]3CC[C@H](C2)[NH+]3Cc2ccccc2)c1OC,O,0,0,8.91,['8.91'],['datawarrior']
2706,COc1cccc(C(=O)[O-])c1,O,0,0,4.06,['4.06'],['datawarrior']
2707,COc1cccc(C(=O)[O-])c1C,O,0,0,3.72,['3.72'],['datawarrior']
2708,COc1cccc(C)c1C(=O)[O-],O,0,0,3.46,['3.46'],['datawarrior']
2709,COc1cccc(C2(O)CCCCC2C[NH+](C)C)c1,O,0,0,9.023333,['9.023333'],['chembl25']
2710,COc1cccc(C2[NH2+]CCS2)c1,O,0,0,5.12,['5.12'],['datawarrior']
2711,COc1cccc(C=O)c1O,O,0,0,7.91,['7.91'],['datawarrior']
2712,COc1cccc(CC2CCC[NH2+]C2)c1,O,0,0,9.9,['9.9'],['chembl25']