,Solute SMILES,Solvent SMILES,Solute CAS,Solute IUPAC,pKa (avg),pKa (all),Source
829,CC(O)(c1ccccc1)C(C(=O)[O-])c1ccc(-c2ccccc2)cc1,O,0,0,3.38,['3.38'],['datawarrior']
830,CC(O)=CC(=O)C(C)(C)C,O,0,0,9.94,['9.94'],['datawarrior']
831,CC(O)=CC(=O)C(F)(F)F,O,0,0,6.09,['6.09'],['datawarrior']
832,CC(O)=CC(=O)Nc1ccc(C)cc1,O,0,0,10.15,['10.15'],['datawarrior']
833,CC(O)=CC(=O)Nc1cccc(C)c1,O,0,0,10.0,['10.0'],['datawarrior']
834,CC(O)=CC(=O)Nc1ccccc1,O,0,0,9.94,['9.94'],['datawarrior']
835,CC(O)=CC(N)=O,O,0,0,10.41,['10.41'],['datawarrior']
836,CC(O)C(=O)[O-],O,0,0,3.76,['3.76'],['datawarrior']
837,CC(O)C(C(=O)[O-])c1ccc(-c2ccccc2)cc1,O,0,0,4.3,['4.3'],['datawarrior']
838,CC(O)C(C(=O)[O-])c1ccc(C2CCCCC2)cc1,O,0,0,4.21,['4.21'],['datawarrior']
839,CC(O)CC(=O)[O-],O,0,0,4.5,['4.5'],['datawarrior']
840,CC(O)C[NH+](C)CC(C)O,O,0,0,8.7,['8.7'],['datawarrior']
841,CC(O)C[NH+](C)CCO,O,0,0,8.69,['8.69'],['datawarrior']
842,CC(O)C[NH+](CC(C)O)C(C)(C)C,O,0,0,9.36,['9.36'],['datawarrior']
843,CC(O)C[NH+](CC(C)O)C(C)C,O,0,0,9.33,['9.33'],['datawarrior']
844,CC(O)C[NH+](CCO)C(C)(C)C,O,0,0,9.2,['9.2'],['datawarrior']
845,CC(O)C[NH+](Cc1ccccc1)CC(C)O,O,0,0,7.5,['7.5'],['datawarrior']
846,CC(O)C[NH2+]C(C)(C)C,O,0,0,10.0,['10.0'],['datawarrior']
847,CC(O)C[NH2+]CC(C)O,O,0,0,8.88,['8.88'],['datawarrior']
848,CC(O)C[NH2+]CCO,O,0,0,8.81,['8.81'],['datawarrior']
849,CC(O)[C@@H]1C[C@H](CC(=O)[O-])C1(C)C,O,0,0,4.83,['4.83'],['datawarrior']
850,CC(O)c1cccc(O)c1CO,O,0,0,9.9,['9.9'],['datawarrior']
851,CC(OCC(O)C[NH2+]C(C)(C)C)C1CC1,O,0,0,9.76,['9.76'],['chembl25']
852,CC(P)C(=O)[O-],O,0,0,4.15,['4.15'],['datawarrior']
853,CC([C@H](O)c1ccccc1)[NH+](C)C,O,0,0,9.0,['9.0'],['chembl25']
854,CC([NH2+]C(C)(C)C)C(=O)c1cccc(Cl)c1,O,0,0,8.6,['8.6'],['chembl25']
855,CC([NH2+]CCC(c1ccccc1)c1ccccc1)c1ccccc1,O,0,0,9.04,['9.04'],['chembl25']
856,CC([NH3+])(CO)CO,O,0,0,8.8,['8.8'],['datawarrior']
857,CC([NH3+])C(N)=O,O,0,0,8.02,['8.02'],['datawarrior']
858,CC([NH3+])CC1CCCCC1,O,0,0,10.14,['10.14'],['datawarrior']
859,CC([NH3+])CCCc1ccccc1,O,0,0,9.99,['9.99'],['datawarrior']
860,CC([NH3+])CCc1ccccc1,O,0,0,9.78,['9.78'],['datawarrior']
861,CC([NH3+])CO,O,0,0,9.43,['9.43'],['datawarrior']
862,CC([NH3+])Cc1ccc2c(c1)OCO2,O,0,0,9.67,['9.67'],['datawarrior']
863,CC([NH3+])Cc1ccccc1,O,0,0,9.9,['9.9'],['datawarrior']
864,CC([NH3+])c1ccccc1,O,0,0,9.36,['9.36'],['datawarrior']
865,CC/C(=C(\c1ccccc1)c1ccc(OCC[NH+](C)C)cc1)c1ccccc1,O,0,0,9.203333,['9.203333'],['chembl25']
866,CC/C(C)=C/C(=O)[O-],O,0,0,5.14,['5.14'],['datawarrior']
867,CC/C(C)=C\C(=O)[O-],O,0,0,5.15,['5.15'],['datawarrior']
868,CC/C(N)=[NH+]/O,O,0,0,5.95,['5.95'],['datawarrior']
869,CC/C=C/C(=O)[O-],O,0,0,4.69,['4.69'],['datawarrior']
870,CC/C=C/CC(=O)N[C@H]1C(=O)N2[C@H]1SC(C)(C)[C@H]2C(=O)[O-],O,0,0,2.84,['2.84'],['datawarrior']
871,CC/C=C/CC(=O)[O-],O,0,0,4.52,['4.52'],['datawarrior']
872,CC/N=c1\sc(-c2ccccc2)nn1CC,O,0,0,6.7,['6.7'],['datawarrior']
873,CC/[NH+]=C(\N=[N+]=[N-])c1ccccc1O,O,0,0,9.4,['9.4'],['datawarrior']
874,CC1(C(=O)[O-])CCC=[N+]1[O-],O,0,0,2.95,['2.95'],['datawarrior']
875,CC1(C(=O)[O-])CCCCC1,O,0,0,5.13,['5.13'],['datawarrior']
876,CC1(C(F)(F)F)NCCc2c1oc1cc(S(=O)(=O)c3cccc(F)c3)ccc21,O,0,0,5.7,['5.7'],['chembl25']
877,CC1(C(F)F)NCCc2c1oc1cc(S(=O)(=O)c3cccc(F)c3)ccc21,O,0,0,6.2,['6.2'],['chembl25']
878,CC1(C)C(=O)C=C([O-])CC1=O,O,0,0,4.2,['4.2'],['datawarrior']
879,CC1(C)C(=O)NC(=O)C1(C)C,O,0,0,9.7,['9.7'],['datawarrior']
880,CC1(C)C=C2N=C3CC(C)(C)CC(=O)C3CC2C(=O)C1,O,0,0,3.6,['3.6'],['datawarrior']
881,CC1(C)C=CC(C)(c2cc3ccc(=O)oc3cc2O)CC1,O,0,0,8.12,['8.12'],['datawarrior']
882,CC1(C)CC(=O)C(=C[O-])C(=O)C1,O,0,0,3.65,['3.65'],['datawarrior']
883,CC1(C)CC(=O)C(Br)=C([O-])C1,O,0,0,3.1,['3.1'],['datawarrior']
884,CC1(C)CC(=O)C(C)(C)[NH2+]1,O,0,0,7.1,['7.1'],['datawarrior']
885,CC1(C)CC(=O)C(N=O)=C([O-])C1,O,0,0,5.4,['5.4'],['datawarrior']
886,CC1(C)CC(=O)C=C([O-])C1,O,0,0,5.21,['5.21'],['datawarrior']
887,CC1(C)CC([O-])=CC1=O,O,0,0,4.2,['4.2'],['datawarrior']
888,CC1(C)CCC(=O)N1O,O,0,0,8.7,['8.7'],['datawarrior']
889,CC1(C)CCC(C(=O)[O-])=[N+]1[O-],O,0,0,2.8,['2.8'],['datawarrior']
890,CC1(C)CCCC(C)(C)[NH2+]1,O,0,0,11.17,['11.17'],['datawarrior']
891,CC1(C)CCCC[NH+]1Cc1ccc2c(c1)OCO2,O,0,0,10.2,['10.2'],['chembl25']
892,CC1(C)CCC[NH+](Cc2ccc3c(c2)OCO3)C1,O,0,0,9.4,['9.4'],['chembl25']
893,CC1(C)CCC[NH+]1Cc1ccc2c(c1)OCO2,O,0,0,10.0,['10.0'],['chembl25']
894,CC1(C)CC[NH+](Cc2ccc3c(c2)OCO3)C1,O,0,0,9.7,['9.7'],['chembl25']
895,CC1(C)CC[NH+](Cc2ccc3c(c2)OCO3)CC1,O,0,0,9.5,['9.5'],['chembl25']
896,CC1(C)CC[NH+]1Cc1ccc2c(c1)OCO2,O,0,0,10.1,['10.1'],['chembl25']
897,CC1(C)CCc2c(Cl)c([O-])c(Cl)c(Cl)c2O1,O,0,0,7.1,['7.1'],['chembl25']
898,CC1(C)CCc2c(cc(Cl)c([O-])c2Cl)O1,O,0,0,7.7,['7.7'],['chembl25']
899,CC1(C)CCc2c(ccc(O)c2Cl)O1,O,0,0,8.6,['8.6'],['chembl25']
900,CC1(C)CCc2cc(O)c(Cl)cc2O1,O,0,0,9.1,['9.1'],['chembl25']
901,CC1(C)CCc2cc(O)cc(Cl)c2O1,O,0,0,9.8,['9.8'],['chembl25']
902,CC1(C)CCc2cc(O)ccc2O1,O,0,0,10.3,['10.3'],['chembl25']
903,CC1(C)CCc2cc(S(=O)(=O)N(CC(=O)[O-])Cc3cccc(-c4ccccc4)c3)ccc2O1,O,0,0,3.4,['3.4'],['chembl25']
904,CC1(C)C[C@@H](C[NH+]2CCC(F)(CNC(=O)c3cc(Cl)cc(Cl)c3)CC2)CCO1,O,0,0,7.9,['7.9'],['chembl25']
905,CC1(C)C[NH+](Cc2ccc3c(c2)OCO3)C1,O,0,0,9.6,['9.6'],['chembl25']
906,CC1(C)C[NH2+]1,O,0,0,5.37,['5.37'],['datawarrior']
907,CC1(C)N=C(C(O)=CC(=O)C(F)(F)F)C(C)(C)N1[O-],O,0,0,4.66,['4.66'],['datawarrior']
908,CC1(C)NC(=O)NC1=O,O,0,0,9.19,['9.19'],['datawarrior']
909,CC1(C)NC(=S)NC1=O,O,0,0,8.71,['8.71'],['datawarrior']
910,CC1(C)NC(=S)NC1=S,O,0,0,7.65,['7.65'],['datawarrior']
911,CC1(C)OC(=O)C=C([O-])O1,O,0,0,5.15,['5.15'],['datawarrior']
912,CC1(C)OC(=O)C[C@H]2[C@@H](C(=O)[O-])[NH2+]C[C@H]21,O,0,0,9.0,['9.0'],['datawarrior']
913,CC1(C)OC(=O)[N-]C1=O,O,0,0,6.15,['6.15'],['datawarrior']
914,CC1(C)O[C@@H]2CC(=O)OC[C@]23[C@@H]1CC(=O)[C@@]1(C)[C@H]3C[C@](C)(CC2CCOC2)C[C@]12O[C@H]2C(=O)[O-],O,0,0,2.7,['2.7'],['datawarrior']
915,CC1(C)O[C@@H]2CO[C@@]3(CNS(N)(=O)=O)OC(C)(C)O[C@H]3[C@@H]2O1,O,0,0,10.7,['10.7'],['chembl25']
916,CC1(C)O[C@@H]2CO[C@@]3(COS(N)(=O)=O)OC(C)(C)O[C@H]3[C@@H]2O1,O,0,0,8.7,['8.7'],['chembl25']
917,CC1(C)O[C@H]2CC(=O)OC[C@@]23[C@H]1C/C(=N/OCC[NH+]1CCCCC1)[C@]1(C)[C@@H]3CC[C@@]2(C)[C@H](c3ccoc3)OC(=O)[C@H]3O[C@]321,O,0,0,8.87,['8.87'],['chembl25']
918,CC1(C)O[C@H]2CC(=O)OC[C@]23[C@H]2CC[C@]4(C)C(=CC(=O)O[C@H]4c4ccoc4)[C@]2(C)/C(=N\OCC[NH+]2CCOCC2)C[C@@H]13,O,0,0,6.84,['6.84'],['chembl25']
919,CC1(C)SC(=O)[N-]C1=O,O,0,0,6.64,['6.64'],['datawarrior']
920,CC1(C)SC(=S)[N-]C1=O,O,0,0,5.38,['5.38'],['datawarrior']
921,CC1(C)S[C@@H]2[C@H](NC(=O)Cc3ccccc3)C(=O)N2[C@H]1C(=O)[O-],O,0,0,2.8,['2.8'],['chembl25']
922,CC1(C)S[C@H]2[C@@H](NC(=O)Cc3ccccc3)C(=O)N2[C@@H]1C(=O)[O-],O,0,0,2.76,['2.76'],['datawarrior']
923,CC1(C)[C@@H]2CC[C@](C(=O)[O-])(C2)[C@@H]1O,O,0,0,4.83,['4.83'],['datawarrior']
924,CC1(C)[C@H](O)[C@]2(C(=O)[O-])CC[C@@H]1C2,O,0,0,5.05,['5.05'],['datawarrior']
925,CC1(C)[C@H]2CC[C@@]1(C)[C@@H](O)[C@@H]2C(=O)[O-],O,0,0,2.74,['2.74'],['datawarrior']
926,CC1(C)[C@H]2CC[C@@]1(C)[C@@H](O)[C@H]2C(=O)[O-],O,0,0,2.05,['2.05'],['datawarrior']
927,CC1(C2CCCC2)Cc2cc(OC/C=C/CC(=O)[O-])c(Cl)c(Cl)c2C1=O,O,0,0,5.1,['5.1'],['chembl25']
928,CC1(C2CCCC2)Cc2cc(OC3(C(=O)[O-])CCC3)c(Cl)c(Cl)c2C1=O,O,0,0,3.8,['3.8'],['chembl25']
929,CC1(C2CCCC2)Cc2cc(OCC(=O)[O-])c(Cl)c(Cl)c2C1=O,O,0,0,3.9,['3.9'],['chembl25']
930,CC1(C2CCCC2)Cc2cc(OCCCC(=O)[O-])c(Cl)c(Cl)c2C1=O,O,0,0,5.7,['5.7'],['chembl25']
931,CC1(C2CCCC2)Cc2cc(OCc3ccc(C(=O)[O-])cc3)c(Cl)c(Cl)c2C1=O,O,0,0,6.2,['6.2'],['chembl25']
932,CC1(Cc2ccccc2)Cc2cc(OCC(=O)[O-])c(Cl)c(Cl)c2C1=O,O,0,0,3.8,['3.8'],['chembl25']
933,CC1(Cc2ccccc2)Cc2cc(OCCCC(=O)[O-])c(Cl)c(Cl)c2C1=O,O,0,0,6.3,['6.3'],['chembl25']
934,CC1(O)CC[NH+](Cc2ccc(OC3CN(C(=O)c4nnc(-c5ccccc5)o4)C3)cc2)C1,O,0,0,9.0,['9.0'],['chembl25']
935,CC1([N+](C)(C)C)CN(c2c(F)cc3c(=O)c(C(=O)[O-])cn(C4CC4)c3c2F)C1,O,0,0,6.03,['6.03'],['chembl25']
936,CC1(c2cc(NC(=O)c3ccc(Cl)cn3)ccc2F)[NH+]=C(N)c2ccccc2O1,O,0,0,7.3,['7.3'],['chembl25']
937,CC1(c2cccc(-c3cccc(Cl)c3)c2)[NH+]=C(N)CCO1,O,0,0,9.3,['9.3'],['chembl25']
938,CC1(c2cccc(-c3cncnc3)c2)[NH+]=C(N)CCS1,O,0,0,9.1,['9.1'],['chembl25']
939,CC1(c2cccc(-c3cncnc3)c2)[NH+]=C(N)c2c(F)cccc2O1,O,0,0,6.9,['6.9'],['chembl25']
940,CC1(c2cccc(-c3cncnc3)c2)[NH+]=C(N)c2ccccc2O1,O,0,0,8.1,['8.1'],['chembl25']
941,CC1(c2cccc(-c3cncnc3)c2)[NH+]=C(N)c2ccccc2S1,O,0,0,8.3,['8.3'],['chembl25']
942,CC1(c2cccc(NC(=O)c3ccccn3)c2)CSC(N)=[NH+]1,O,0,0,8.3,['8.3'],['chembl25']
943,CC1(c2ccccc2)COCC(N)=[NH+]1,O,0,0,9.8,['9.8'],['chembl25']
944,CC1(c2ccccc2)Cc2cc(OCC(=O)[O-])c(Cl)c(Cl)c2C1=O,O,0,0,3.7,['3.7'],['chembl25']
945,CC1(c2ccccc2)Cc2cc(OCCCC(=O)[O-])c(Cl)c(Cl)c2C1=O,O,0,0,6.4,['6.4'],['chembl25']
946,CC12CC3(C)CC(C)(C1)CC([NH3+])(C2)C3,O,0,0,10.58,['10.58'],['chembl25']
947,CC12CC3CC(C)(C1)CC([NH3+])(C3)C2,O,0,0,10.42,['10.42'],['chembl25']
948,CC12CC3CC(C1)CC([NH3+])(C3)C2,O,0,0,10.56,['10.56'],['chembl25']
949,CC12CCC(=O)C=C1c1c(cc(OCC(=O)[O-])c(Cl)c1Cl)C2,O,0,0,3.75,['3.75'],['chembl25']
950,CC12C[NH+]3CC(C)(C1)CC(C)(C3)C2,O,0,0,10.7,['10.7'],['datawarrior']
951,CC1=C(/C=C/C(C)=C/C=C/C(C)=C/C(=O)[O-])C(C)(C)CCC1,O,0,0,4.51,['4.51'],['chembl25']
952,CC1=C(C)C(C(C)C(=O)[O-])=CC1=O,O,0,0,3.1,['3.1'],['datawarrior']
953,CC1=C(C)C(C(C)C(=O)[O-])CC1=O,O,0,0,4.4,['4.4'],['datawarrior']
954,CC1=C(CC(=O)[O-])c2cc(F)ccc2/C1=C\c1ccc(S(C)=O)cc1,O,0,0,4.5,['4.5'],['chembl25']
955,CC1=C(CC(C)[NH2+]CC(O)c2ccc(Br)cc2)CCC1(C)C,O,0,0,8.57,['8.57'],['datawarrior']
956,CC1=C(CC(C)[NH2+]CC(O)c2ccc(C)cc2)CCC1(C)C,O,0,0,8.71,['8.71'],['datawarrior']
957,CC1=C(CC(C)[NH2+]CC(O)c2ccc(Cl)cc2)CCC1(C)C,O,0,0,8.55,['8.55'],['datawarrior']
958,CC1=C(CC(C)[NH2+]CC(O)c2ccc(F)cc2)CCC1(C)C,O,0,0,8.51,['8.51'],['datawarrior']
959,CC1=C(CC(C)[NH2+]CC(O)c2ccccc2)CCC1(C)C,O,0,0,8.84,['8.84'],['datawarrior']
960,CC1=C([O-])C(Cc2ccc(Br)cc2)CC1=O,O,0,0,4.24,['4.24'],['chembl25']
961,CC1=C([O-])C(Cc2ccccc2)CC1=O,O,0,0,4.47,['4.47'],['chembl25']
962,CC1=C([O-])CC(C)(C)CC1=O,O,0,0,5.6,['5.6'],['datawarrior']
963,CC1=C([O-])CCC1=O,O,0,0,4.47,['4.47'],['chembl25']
964,CC1=C([O-])c2ccccc2C1=O,O,0,0,6.17,['6.17'],['datawarrior']
965,CC1=CC=CC(C#N)[C@H]1c1cccc2c1-c1cccc3c1[C@@H](C2)[NH+](C)CC3,O,0,0,7.3,['7.3'],['chembl25']
966,CC1=CCCC[NH+]1C,O,0,0,11.42,['11.42'],['datawarrior']
967,CC1=CCC[NH+]1C,O,0,0,11.94,['11.94'],['datawarrior']
968,CC1=CC[NH+]2CC[C@@H](O)[C@@H]12,O,0,0,9.6,['9.6'],['datawarrior']
969,CC1=CSC2=[NH+]CCCN12,O,0,0,10.31,['10.31'],['datawarrior']
970,CC1=CSC2=[NH+]CCN12,O,0,0,9.81,['9.81'],['datawarrior']
971,CC1=C[C@H]2CC[C@@H](O)[C@H]2[NH+]1C,O,0,0,11.7,['11.7'],['datawarrior']
972,CC1=C[NH+](C)CC1C,O,0,0,9.6,['9.6'],['datawarrior']
973,CC1=NCCCC1,O,0,0,9.57,['9.57'],['datawarrior']
974,CC1=NCCS1,O,0,0,5.29,['5.29'],['datawarrior']
975,CC1=NCCc2c1[nH]c1ccccc21,O,0,0,8.99,['8.99'],['datawarrior']
976,CC1=NN(c2ccc(OCCCCC(CO[N+](=O)[O-])O[N+](=O)[O-])cc2)C(=O)C1,O,0,0,7.15,['7.15'],['chembl25']
977,CC1=NN(c2ccc(OCCCCCCO[N+](=O)[O-])cc2)C(=O)C1,O,0,0,7.12,['7.12'],['chembl25']
978,CC1=NN(c2ccc(OCCCO[N+](=O)[O-])cc2)C(=O)C1,O,0,0,7.11,['7.11'],['chembl25']
979,CC1=NN(c2ccc(OCCCOc3no[n+]([O-])c3-c3ccccc3)cc2)C(=O)C1,O,0,0,7.09,['7.09'],['chembl25']
980,CC1=NN(c2ccc(OCCCOc3no[n+]([O-])c3S(=O)(=O)c3ccccc3)cc2)C(=O)C1,O,0,0,7.12,['7.12'],['chembl25']
981,CC1=NN(c2ccc(OCc3no[n+]([O-])c3C#N)cc2)C(=O)C1,O,0,0,7.06,['7.06'],['chembl25']
982,CC1=N[C@@](Cc2ccccc2)(c2cccc(-c3cncnc3)c2)[NH+]=C1N,O,0,0,6.0,['6.0'],['chembl25']
983,CC1C(N=O)C[C@@H]2N=C(c3ccccc3)O[C@@]13[C@@H]1OC(=O)[C@H](C)[C@H]1CC[C@]23C,O,0,0,4.675,['4.675'],['datawarrior']
984,CC1C2c3ccccc3C(c3ccccc32)C1C(=O)Nc1ccccn1,O,0,0,5.27,['5.27'],['chembl25']
985,CC1C2c3ccccc3C(c3ccccc32)C1C(=O)Nc1cccnc1,O,0,0,4.14,['4.14'],['chembl25']
986,CC1C2c3ccccc3C(c3ccccc32)C1C(=O)Nc1ccncc1,O,0,0,5.27,['5.27'],['chembl25']
987,CC1C2c3ccccc3C(c3ccccc32)C1C[NH+](C)C,O,0,0,8.99,['8.99'],['chembl25']
988,CC1C=CC=C(C#N)[C@@H]1c1cccc2c1-c1cccc3c1[C@@H](C2)[NH+](C)CC3,O,0,0,7.3,['7.3'],['chembl25']
989,CC1CC(=O)N(O)C1(C)C,O,0,0,8.85,['8.85'],['datawarrior']
990,CC1CC(C(=O)[O-])=[N+]([O-])C1(C)C,O,0,0,2.85,['2.85'],['datawarrior']
991,CC1CC(C)C([O-])=CC1=O,O,0,0,5.62,['5.62'],['datawarrior']
992,CC1CC(OCC(O)C[NH2+]C(C)(C)C)CC(C)(C)C1,O,0,0,9.94,['9.94'],['chembl25']
993,CC1CC([O-])=CC(=O)O1,O,0,0,5.1,['5.1'],['datawarrior']
994,CC1CC2CC[NH+]1CC2,O,0,0,11.33,['11.33'],['datawarrior']
995,CC1CCC(O)(C(C(=O)[O-])c2ccc(-c3ccccc3)cc2)CC1,O,0,0,3.45,['3.45'],['datawarrior']
996,CC1CCCC(C(=O)[O-])c2nnnn21,O,0,0,3.3,['3.3'],['datawarrior']
997,CC1CCCC(C)(C)[NH+]1C,O,0,0,10.76,['10.76'],['datawarrior']
998,CC1CCCC(C)(C)[NH2+]1,O,0,0,11.27,['11.27'],['datawarrior']
999,CC1CCCC(C)C1C(=O)[O-],O,0,0,4.88,['4.88'],['datawarrior']
1000,CC1CCCCC1=N,O,0,0,9.38,['9.38'],['datawarrior']
1001,CC1CCCC[NH+]1C,O,0,0,10.26,['10.26'],['datawarrior']
1002,CC1CCCC[NH2+]1,O,0,0,10.98,['10.98'],['datawarrior']
1003,CC1CCCN1C(=O)c1ccc2cc(OC3CC[NH+](C(C)C)CC3)ccc2c1,O,0,0,9.71,['9.71'],['chembl25']
1004,CC1CCC[C@H](C(C)C(=O)[O-])C1,O,0,0,4.59,['4.59'],['datawarrior']
1005,CC1CCC[NH+](C(C)C=C(c2cccs2)c2cccs2)C1,O,0,0,8.28,['8.28'],['datawarrior']
1006,CC1CCC[NH+]1C,O,0,0,10.24,['10.24'],['datawarrior']
1007,CC1CCC[NH2+]C1,O,0,0,10.92,['10.92'],['datawarrior']
1008,CC1CCN(C(=O)c2ccc3cc(OC4CC[NH+](C(C)C)C4)ccc3c2)CC1,O,0,0,9.4,['9.4'],['chembl25']
1009,CC1CCN(C(=O)c2ccc3cc(OC4CC[NH+](C(C)C)CC4)ccc3c2)CC1,O,0,0,9.6,['9.6'],['chembl25']
1010,CC1CCN(C(=O)c2ccc3cc(OCCC4CCC[NH+]4C)ccc3c2)CC1,O,0,0,9.9,['9.9'],['chembl25']
1011,CC1CCN(C(=O)c2ccc3cc(OCCC[NH+]4CCCCC4)ccc3c2)CC1,O,0,0,9.86,['9.86'],['chembl25']
1012,CC1CCN(C(=O)c2ccc3cc(OCCC[NH+]4CCCCC4)ccc3n2)CC1,O,0,0,9.7,['9.7'],['chembl25']
1013,CC1CCN(C(=O)c2ccc3cc(OCCC[NH+]4CCOCC4)ccc3c2)CC1,O,0,0,7.8,['7.8'],['chembl25']
1014,CC1CCN([O-])C1(C)C,O,0,0,5.9,['5.9'],['datawarrior']
1015,CC1CC[C@H](O)[C@@H]([NH3+])C1,O,0,0,9.5,['9.5'],['datawarrior']
1016,CC1CC[NH+](C(C)C=C(c2cccs2)c2cccs2)CC1,O,0,0,8.2,['8.2'],['datawarrior']
1017,CC1CC[NH+](C)C(C)(C)C1,O,0,0,10.24,['10.24'],['datawarrior']
1018,CC1CC[NH+](CC[C@H]2CCCN2S(=O)(=O)c2cccc3ccccc23)CC1,O,0,0,10.4,['10.4'],['chembl25']
1019,CC1CC[NH2+]1,O,0,0,10.96,['10.96'],['datawarrior']
1020,CC1CC[NH2+]C(C)(C)C1,O,0,0,11.1,['11.1'],['datawarrior']
1021,CC1CC[NH2+]CC1,O,0,0,10.89,['10.89'],['datawarrior']
1022,CC1CCc2c(N3CCC(O)CC3)c(F)cc3c(=O)c(C(=O)[O-])cn1c23,O,0,0,6.8,['6.8'],['chembl25']
1023,CC1CCn2nnnc2C(C(=O)[O-])C1,O,0,0,3.2,['3.2'],['datawarrior']
1024,CC1CN=C(C(C)(C)C)S1,O,0,0,5.02,['5.02'],['datawarrior']
1025,CC1C[NH+]2CCC1CC2,O,0,0,11.29,['11.29'],['datawarrior']
1026,CC1N=CC[NH2+]1,O,0,0,7.86,['7.86'],['chembl25']
1027,CC1NC(=[NH+]CC(F)F)Nc2c(Cl)ccc(Cl)c21,O,0,0,7.8,['7.8'],['chembl25']
1028,CC1NC(=[NH+]CC(F)F)Nc2ccc(Cl)c(Cl)c21,O,0,0,8.5,['8.5'],['chembl25']
1029,CC1NC(=[NH+]CC(F)F)Nc2cccc(Cl)c21,O,0,0,8.9,['8.9'],['chembl25']
1030,CC1NC(=[NH+]CC(F)F)Nc2ccccc21,O,0,0,9.7,['9.7'],['chembl25']
1031,CC1NOCc2ccccc21,O,0,0,3.7,['3.7'],['datawarrior']
1032,CC1ONCc2ccccc21,O,0,0,3.6,['3.6'],['datawarrior']
1033,CC1[NH+]=C(N)Nc2cccc(Cl)c21,O,0,0,9.9,['9.9'],['chembl25']
1034,CC1[NH+]=C(N)Nc2ccccc21,O,0,0,10.5,['10.5'],['chembl25']
1035,CC=C(C)C=C(C)C(=O)C[C@@H](O)CC1CC(=O)NC(=O)C1,O,0,0,11.2,['11.2'],['datawarrior']
1036,CCC#CC(=O)[O-],O,0,0,2.6,['2.6'],['datawarrior']
1037,CCC(=O)C(CC(C)[NH+](C)C)(c1ccccc1)c1ccccc1,O,0,0,8.723333,['8.723333'],"['datawarrior', 'chembl25']"
1038,CCC(=O)C(CC(C)[NH+]1CCCCC1)(c1ccccc1)c1ccccc1,O,0,0,8.58,['8.58'],['datawarrior']
1039,CCC(=O)C(CC(C)[NH+]1CCOCC1)(c1ccccc1)c1ccccc1,O,0,0,6.89,['6.89'],['datawarrior']
1040,CCC(=O)C(CC[NH+](C)C)(c1ccccc1)c1ccccc1,O,0,0,9.23,['9.23'],['datawarrior']
1041,CCC(=O)C(CC[NH+]1CCCCC1)(c1ccccc1)c1ccccc1,O,0,0,8.86,['8.86'],['datawarrior']
1042,CCC(=O)C(CC[NH+]1CCOCC1)(c1ccccc1)c1ccccc1,O,0,0,6.98,['6.98'],['datawarrior']
1043,CCC(=O)C(C[C@H](C)[NH+]1CCOCC1)(c1ccccc1)c1ccccc1,O,0,0,6.73,['6.73'],['datawarrior']
1044,CCC(=O)C(c1ccccc1)(c1ccccc1)C(C)C[NH+]1CCOCC1,O,0,0,7.12,['7.12'],['datawarrior']
1045,CCC(=O)C(c1ccccc1)(c1ccccc1)[C@@H](C)C[NH+](C)C,O,0,0,8.07,['8.07'],['datawarrior']
1046,CCC(=O)C=C(O)CC,O,0,0,9.82,['9.82'],['datawarrior']
1047,CCC(=O)CN=O,O,0,0,8.37,['8.37'],['datawarrior']
1048,CCC(=O)N(c1ccccc1)C1(COC)CC[NH+](CCc2cccs2)CC1,O,0,0,7.85,['7.85'],['chembl25']
1049,CCC(=O)N(c1ccccc1)C1(COC)CC[NH+](CCn2nnn(CC)c2=O)CC1,O,0,0,6.5,['6.5'],['chembl25']
1050,CCC(=O)N(c1ccccc1)C1CC[NH+](CCc2ccccc2)CC1,O,0,0,8.43,['8.43'],['chembl25']
1051,CCC(=O)NO,O,0,0,9.46,['9.46'],['datawarrior']
1052,CCC(=O)NS(=O)(=O)c1ccc(-c2c(-c3ccccc3)noc2C)cc1,O,0,0,4.9,['4.9'],['chembl25']
1053,CCC(=O)OC(C)C[NH+](C)C,O,0,0,8.26,['8.26'],['datawarrior']
1054,CCC(=O)OCC[NH+](C)C,O,0,0,8.29,['8.29'],['datawarrior']
1055,CCC(=O)OO,O,0,0,8.1,['8.1'],['datawarrior']
1056,CCC(=O)O[C@@]1(c2ccccc2)CC[NH+](C)C[C@H]1C,O,0,0,8.66,['8.66'],['datawarrior']
1057,CCC(=O)O[C@](Cc1ccccc1)(c1ccccc1)[C@H](C)C[NH+](C)C,O,0,0,9.2,['9.2'],['chembl25']
1058,CCC(=O)SCC[NH+](C)C,O,0,0,8.28,['8.28'],['datawarrior']
1059,CCC(=O)[O-],O,0,0,4.85,['4.85'],"['datawarrior', 'chembl25']"
1060,CCC(=O)c1cc(C(=O)C(C)(C)C)n[nH]1,O,0,0,9.7,['9.7'],['datawarrior']
1061,CCC(=O)c1cc(C(=O)c2ccccc2)[nH]n1,O,0,0,9.14,['9.14'],['datawarrior']
1062,CCC(=O)c1cc(C(C)=O)n[nH]1,O,0,0,9.05,['9.05'],['datawarrior']
1063,CCC(=O)c1nc(C(=O)[O-])cs1,O,0,0,3.7,['3.7'],['datawarrior']
1064,CCC(C(=O)Nc1c(C)cccc1C)[NH+](CC)CC,O,0,0,7.91,['7.91'],['chembl25']
1065,CCC(C(=O)[O-])C(=O)N1CCCCC1,O,0,0,3.86,['3.86'],['datawarrior']
1066,CCC(C(C)=O)=C(C)O,O,0,0,11.33,['11.33'],['datawarrior']
1067,CCC(C)(C)C(=O)[O-],O,0,0,5.03,['5.03'],['datawarrior']
1068,CCC(C)(C)Nc1ccccc1,O,0,0,6.55,['6.55'],['datawarrior']
1069,CCC(C)(C)[NH+](C)C(C)(C)C,O,0,0,11.9,['11.9'],['datawarrior']
1070,CCC(C)(C)[NH+](C)C(C)C,O,0,0,11.2,['11.2'],['datawarrior']
1071,CCC(C)(C)[NH2+]C(C)(C)CC,O,0,0,11.6,['11.6'],['datawarrior']
1072,CCC(C)(C)[NH2+]C1CCCCC1,O,0,0,11.2,['11.2'],['datawarrior']
1073,CCC(C)(C)[NH2+]CC(O)COc1ccccc1C(=O)CCc1ccccc1,O,0,0,9.2,['9.2'],['chembl25']
1074,CCC(C)(C)[NH3+],O,0,0,10.89,['10.89'],['datawarrior']
1075,CCC(C)(CC)Nc1ccccc1,O,0,0,6.32,['6.32'],['datawarrior']
1076,CCC(C)(O)C(C(=O)[O-])c1ccc(-c2ccccc2)cc1,O,0,0,3.41,['3.41'],['datawarrior']
1077,CCC(C)([NH3+])CC,O,0,0,10.91,['10.91'],['datawarrior']
1078,CCC(C)C(=O)CC[NH+]1CCOCC1,O,0,0,7.07,['7.07'],['datawarrior']
1079,CCC(C)C(=O)c1ccc(OCC(=O)[O-])c(Cl)c1Cl,O,0,0,3.5,['3.5'],['chembl25']
1080,CCC(C)CC(=O)[O-],O,0,0,4.84,['4.84'],['datawarrior']
1081,CCC(C)CN=C1Nc2cc(Cl)sc2S(=O)(=O)N1,O,0,0,8.29,['8.29'],['chembl25']
1082,CCC(C)N(C)c1ccccc1,O,0,0,6.03,['6.03'],['datawarrior']
1083,CCC(C)Nc1ccccc1,O,0,0,5.47,['5.47'],['datawarrior']
1084,CCC(C)[NH+](C)C,O,0,0,10.4,['10.4'],['datawarrior']
1085,CCC(C)[NH2+]C(C)C,O,0,0,11.0,['11.0'],['datawarrior']
1086,CCC(C)[NH2+]C(C)CC,O,0,0,10.94,['10.94'],['datawarrior']
1087,CCC(C)[NH2+]CC(C)C,O,0,0,10.77,['10.77'],['datawarrior']
1088,CCC(C)[NH3+],O,0,0,10.56,['10.56'],['datawarrior']
1089,CCC(CC)C(=O)O[C@H]1O[C@@H](C(=O)[O-])[C@H](O)[C@@H](O)[C@@H]1O,O,0,0,3.37,['3.37'],['datawarrior']
1090,CCC(CC)C(=O)[O-],O,0,0,4.73,['4.73'],['datawarrior']
1091,CCC(CC)CNC(=O)c1cnc(Nc2cccc(Cl)c2)cc1C(C)C,O,0,0,6.02,['6.02'],['chembl25']
1092,CCC(CC)Nc1cc(C)[nH+]c(Nc2c(C)cc(C)cc2C)c1C,O,0,0,9.3,['9.3'],['chembl25']
1093,CCC(CC)Nc1cc(C)[nH+]c(Oc2c(C)cc(C)cc2C)c1C,O,0,0,6.9,['6.9'],['chembl25']
1094,CCC(CC)Nc1ncnc2c1ncn2C1O[C@H](CO)[C@@H](O)[C@H]1O,O,0,0,3.3,['3.3'],['chembl25']
1095,CCC(CC)Oc1cc(C)nc(Oc2c(C)cc(C)cc2C)c1C,O,0,0,3.55,['3.55'],['chembl25']
1096,CCC(CC)[C@@H](CO)NS(=O)(=O)c1ccc(Cl)s1,O,0,0,9.6,['9.6'],['chembl25']
1097,CCC(O)=CC(C)=O,O,0,0,9.36,['9.36'],['datawarrior']
1098,CCC(O)C(C(=O)[O-])c1ccc(-c2ccccc2)cc1,O,0,0,4.16,['4.16'],['datawarrior']
1099,CCC(O)C[NH+](C)CC(C)O,O,0,0,8.9,['8.9'],['datawarrior']
1100,CCC(O)C[NH+](C)CC(O)CC,O,0,0,9.0,['9.0'],['datawarrior']
1101,CCC(O)C[NH+](C)CCO,O,0,0,8.7,['8.7'],['datawarrior']
1102,CCC(O)C[NH+](CC(C)O)C(C)(C)C,O,0,0,9.5,['9.5'],['datawarrior']
1103,CCC(O)C[NH+](CC(O)CC)C(C)(C)C,O,0,0,9.6,['9.6'],['datawarrior']
1104,CCC(O)C[NH+](CC)CC(C)O,O,0,0,9.2,['9.2'],['datawarrior']