,Solute SMILES,Solvent SMILES,Solute CAS,Solute IUPAC,pKa (avg),pKa (all),Source
3778,Cc1cccc(Nc2cc(C(C)C)c(C(=O)NCC3CCOCC3)cn2)c1,O,0,0,6.02,['6.02'],['chembl25']
3779,Cc1cccc(Nc2ccccc2C(=O)[O-])c1C,O,0,0,4.2,['4.2'],['chembl25']
3780,Cc1cccc(Nc2ccncc2S(=O)(=O)/N=C(\NC#N)N2CCCCCC2)c1,O,0,0,6.0,['6.0'],['chembl25']
3781,Cc1cccc(O)c1,O,0,0,10.055,['10.055'],"['datawarrior', 'chembl25']"
3782,Cc1cccc(O)c1C,O,0,0,10.51,['10.51'],['datawarrior']
3783,Cc1cccc(O)c1C(=O)Oc1ccccc1,O,0,0,8.63,['8.63'],['datawarrior']
3784,Cc1cccc(O)c1C(=O)[O-],O,0,0,3.35,['3.35'],['datawarrior']
3785,Cc1cccc(O)c1O,O,0,0,9.28,['9.28'],['datawarrior']
3786,Cc1cccc(OC(O)(CBr)c2ccccc2)c1,O,0,0,11.21,['11.21'],['datawarrior']
3787,Cc1cccc(OCC(=O)[O-])c1,O,0,0,3.18,['3.18'],['datawarrior']
3788,Cc1cccc(Oc2cc(NCc3ccccc3)nc(N)n2)c1,O,0,0,5.27,['5.27'],['chembl25']
3789,Cc1cccc(S(=O)(=O)N2CCC[C@@H]2CC[NH+]2CCC(C)CC2)c1,O,0,0,10.4,['10.4'],['chembl25']
3790,Cc1cccc(S(N)(=O)=O)c1,O,0,0,9.51,['9.51'],['datawarrior']
3791,Cc1cccc(SCC(=O)[O-])c1,O,0,0,3.52,['3.52'],['datawarrior']
3792,Cc1cccc([P+](c2cccc(C)c2)(c2cccc(C)c2)C2c3ccccc3-c3ccccc32)c1,O,0,0,9.55,['9.55'],['datawarrior']
3793,Cc1cccc2[nH]cnc12,O,0,0,5.67,['5.67'],['datawarrior']
3794,Cc1cccc2c1C(=O)NC2=O,O,0,0,10.49,['10.49'],['datawarrior']
3795,Cc1cccc2c1CCC21CCc2c(C(=O)N(C)C)cn3c(C)c(C)nc3c2O1,O,0,0,6.87,['6.87'],['chembl25']
3796,Cc1cccc2c1[C@H](Oc1cc(C(=O)N(C)C)cn3c(C)c(C)nc13)[C@@H](O)C2,O,0,0,6.22,['6.22'],['chembl25']
3797,Cc1cccc2cc3ccccc3nc12,O,0,0,4.5,['4.5'],['datawarrior']
3798,Cc1cccc2ccc(O)cc12,O,0,0,9.42,['9.42'],['datawarrior']
3799,Cc1cccc2cccnc12,O,0,0,4.87,['4.87'],['datawarrior']
3800,Cc1cccc2ncccc12,O,0,0,5.0,['5.0'],['datawarrior']
3801,Cc1cccc2oc(=O)cc([O-])c12,O,0,0,4.2,['4.2'],['datawarrior']
3802,Cc1cccc2sc(C(N)=[NH2+])cc12,O,0,0,9.1,['9.1'],['chembl25']
3803,Cc1ccccc(=O)c1[O-],O,0,0,7.92,['7.92'],['datawarrior']
3804,Cc1ccccc1-c1nc2cn(-c3ccc(C#N)cc3)nc2c(=O)n1CC1CCC[NH+](C(C)C)C1,O,0,0,10.0,['10.0'],['chembl25']
3805,Cc1ccccc1-c1nc2cn(-c3ccc(Cl)cc3)nc2c(=O)n1CC1CCC[NH+](C(C)C)C1,O,0,0,10.0,['10.0'],['chembl25']
3806,Cc1ccccc1-c1nc2cn(-c3ccc(F)cc3)nc2c(=O)n1CC1CCC[NH+](C(C)C)C1,O,0,0,10.0,['10.0'],['chembl25']
3807,Cc1ccccc1-c1nc2cn(-c3cccc(C#N)c3)nc2c(=O)n1CC1CCC[NH+](C(C)C)C1,O,0,0,9.9,['9.9'],['chembl25']
3808,Cc1ccccc1-c1nc2cn(-c3cccc(Cl)c3)nc2c(=O)n1CC1CCC[NH+](C(C)C)C1,O,0,0,9.8,['9.8'],['chembl25']
3809,Cc1ccccc1-c1nn[n-]n1,O,0,0,4.09,['4.09'],['datawarrior']
3810,Cc1ccccc1/C=C/C(=O)[O-],O,0,0,4.5,['4.5'],['datawarrior']
3811,Cc1ccccc1/C=C/c1ccc(N(C)C)cc1,O,0,0,4.59,['4.59'],['datawarrior']
3812,Cc1ccccc1/[NH+]=C/N(C)C,O,0,0,8.27,['8.27'],['datawarrior']
3813,Cc1ccccc1C(=N)c1ccccc1,O,0,0,7.21,['7.21'],['datawarrior']
3814,Cc1ccccc1C(=O)[O-],O,0,0,3.92,['3.92'],['datawarrior']
3815,Cc1ccccc1C(=O)c1ccc2n1CCC2C(=O)[O-],O,0,0,3.44,['3.44'],['chembl25']
3816,Cc1ccccc1C(=S)Nc1ccccc1,O,0,0,10.87,['10.87'],['datawarrior']
3817,Cc1ccccc1C(O)C(C(=O)[O-])c1ccc(-c2ccccc2)cc1,O,0,0,4.19,['4.19'],['datawarrior']
3818,Cc1ccccc1C(OCC[NH+](C)C)c1ccccc1,O,0,0,8.4,['8.4'],['chembl25']
3819,Cc1ccccc1C1CCc2c(C(=O)N(C)C)cn3c(C)c(C)nc3c2O1,O,0,0,6.74,['6.74'],['chembl25']
3820,Cc1ccccc1C[NH+](C)C,O,0,0,8.71,['8.71'],['datawarrior']
3821,Cc1ccccc1C[NH3+],O,0,0,9.23,['9.23'],['datawarrior']
3822,Cc1ccccc1N,O,0,0,4.45,['4.45'],['datawarrior']
3823,Cc1ccccc1N(C)C,O,0,0,6.0,['6.0'],['datawarrior']
3824,Cc1ccccc1N1C(=O)c2cc(S(N)(=O)=O)c(Cl)cc2NC1C,O,0,0,9.72,['9.72'],['chembl25']
3825,Cc1ccccc1NC(=O)C[NH+]1CCCCC1,O,0,0,7.7,['7.7'],['datawarrior']
3826,Cc1ccccc1NC(=O)C[NH3+],O,0,0,7.81,['7.81'],['datawarrior']
3827,Cc1ccccc1NC(=S)c1ccccc1,O,0,0,10.21,['10.21'],['datawarrior']
3828,Cc1ccccc1NC(C)(C)C,O,0,0,6.49,['6.49'],['datawarrior']
3829,Cc1ccccc1NC(N)=[NH+]c1ccccc1C,O,0,0,9.67,['9.67'],['datawarrior']
3830,Cc1ccccc1NC1=[NH+]CCN1,O,0,0,10.23,['10.23'],['chembl25']
3831,Cc1ccccc1NC1CCCC1,O,0,0,5.07,['5.07'],['datawarrior']
3832,Cc1ccccc1NC1CCCCC1,O,0,0,5.34,['5.34'],['datawarrior']
3833,Cc1ccccc1Nc1c2ccccc2nc2ccccc12,O,0,0,7.76,['7.76'],['chembl25']
3834,Cc1ccccc1O,O,0,0,10.26,['10.26'],"['datawarrior', 'chembl25']"
3835,Cc1ccccc1OC(C)C(=O)[O-],O,0,0,3.37,['3.37'],['datawarrior']
3836,Cc1ccccc1OCC(=O)[O-],O,0,0,3.17,['3.17'],['datawarrior']
3837,Cc1ccccc1OCC(O)C[NH2+]CCOc1ccc(C(N)=O)cc1,O,0,0,7.9,['7.9'],['chembl25']
3838,Cc1ccccc1SCC(=O)[O-],O,0,0,3.46,['3.46'],['datawarrior']
3839,Cc1ccccc1[C@@H]1CCc2c(C(=O)N(C)C)cc3c(nc(C4CC4)n3C)c2O1,O,0,0,5.28,['5.28'],['chembl25']
3840,Cc1ccccc1[C@@H]1CCc2c(C(=O)N(C)C)cn3c(C)c(C)nc3c2O1,O,0,0,7.15,['7.15'],['chembl25']
3841,Cc1ccccn1,O,0,0,5.973333,['5.973333'],"['datawarrior', 'chembl25']"
3842,Cc1cccnc1,O,0,0,5.81,['5.81'],['datawarrior']
3843,Cc1cccnc1C,O,0,0,6.57,['6.57'],['datawarrior']
3844,Cc1cccnc1N,O,0,0,7.24,['7.24'],['datawarrior']
3845,Cc1cccnn1,O,0,0,3.46,['3.46'],['datawarrior']
3846,Cc1ccn(C)c2nc3ccccc3c1-2,O,0,0,8.35,['8.35'],['datawarrior']
3847,Cc1ccn2c(CC#N)c(C)nc2c1OCc1ccccc1,O,0,0,5.67,['5.67'],['chembl25']
3848,Cc1ccn[nH]1,O,0,0,3.66,['3.66'],['datawarrior']
3849,Cc1ccnc(-c2cc(C)ccn2)c1,O,0,0,5.32,['5.32'],['datawarrior']
3850,Cc1ccnc(C)c1,O,0,0,6.77,['6.77'],['datawarrior']
3851,Cc1ccnc(N)c1,O,0,0,7.48,['7.48'],['datawarrior']
3852,Cc1ccnc(N)n1,O,0,0,4.2,['4.2'],['datawarrior']
3853,Cc1ccnc(N2CCc3ccccc3C2)c1,O,0,0,6.6,['6.6'],['chembl25']
3854,Cc1ccnc([N-]S(=O)(=O)c2ccc(Cl)cc2)n1,O,0,0,5.37,['5.37'],['datawarrior']
3855,Cc1ccnc2c1ccc1c(C)ccnc12,O,0,0,5.94,['5.94'],['datawarrior']
3856,Cc1ccnc2ccccc12,O,0,0,5.51,['5.51'],['datawarrior']
3857,Cc1ccncc1,O,0,0,6.075,['6.075'],"['datawarrior', 'chembl25']"
3858,Cc1ccncc1C,O,0,0,6.53,['6.53'],['datawarrior']
3859,Cc1ccnnc1,O,0,0,3.22,['3.22'],['datawarrior']
3860,Cc1ccnnc1C,O,0,0,4.1,['4.1'],['datawarrior']
3861,Cc1cn(C)nc1C,O,0,0,3.56,['3.56'],['datawarrior']
3862,Cc1cn(C2CC(N=[N+]=[N-])C(COP(=O)(NC(C)(C)C)OCCSC(=O)C(C)(C)C)O2)c(=O)[nH]c1=O,O,0,0,10.45,['10.45'],['chembl25']
3863,Cc1cn(C2CC(N=[N+]=[N-])C(COP(=O)(NC(C)C)OCCSC(=O)C(C)(C)C)O2)c(=O)[nH]c1=O,O,0,0,10.63,['10.63'],['chembl25']
3864,Cc1cn([C@@H]2C[C@@H](O)[C@H](CO)O2)c(=O)[nH]c1=S,O,0,0,8.8,['8.8'],['datawarrior']
3865,Cc1cn([C@H]2C[C@H](O)[C@@H](CO)O2)c(=O)[nH]c1=O,O,0,0,9.8,['9.8'],['chembl25']
3866,Cc1cn2c3c(=O)n(C)c(=O)n(C)c3nc2n1CCC[NH+]1CCN(c2cccc(Cl)c2)CC1,O,0,0,8.12,['8.12'],['chembl25']
3867,Cc1cn2c3c(=O)n(C)c(=O)n(C)c3nc2n1CCC[NH+]1CCN(c2cccc(Cl)c2Cl)CC1,O,0,0,7.61,['7.61'],['chembl25']
3868,Cc1cn2c3c(=O)n(C)c(=O)n(C)c3nc2n1CCC[NH+]1CCN(c2ccccc2)CC1,O,0,0,7.55,['7.55'],['chembl25']
3869,Cc1cn2c3c(=O)n(C)c(=O)n(C)c3nc2n1CCC[NH+]1CCc2ccccc2C1,O,0,0,8.66,['8.66'],['chembl25']
3870,Cc1cn2cc(C(=O)N(C)C)c3c(c2[nH+]1)CC(c1ccccc1)CC3,O,0,0,6.67,['6.67'],['chembl25']
3871,Cc1cn2ccc3c(c2[nH+]1)CC(c1ccccc1)CC3,O,0,0,7.63,['7.63'],['chembl25']
3872,Cc1cn2nc(-c3ccccc3)cc(C)c2[nH+]1,O,0,0,5.3,['5.3'],['datawarrior']
3873,Cc1cn2nc(-c3ccccc3)ccc2[nH+]1,O,0,0,5.09,['5.09'],['datawarrior']
3874,Cc1cnc(-c2ccccc2)c(=O)[nH]1,O,0,0,9.3,['9.3'],['datawarrior']
3875,Cc1cnc(C(=O)NCCc2ccc(S(=O)(=O)NC(=O)NC3CCCCC3)cc2)cn1,O,0,0,5.9,['5.9'],['chembl25']
3876,Cc1cnc(C(=O)[O-])s1,O,0,0,3.03,['3.03'],['datawarrior']
3877,Cc1cnc(C)c(C)n1,O,0,0,2.65,['2.65'],['datawarrior']
3878,Cc1cnc(C[NH2+]CC2(F)CCN(C(=O)c3ccc(F)c(Cl)c3)CC2)nc1,O,0,0,6.7,['6.7'],['chembl25']
3879,Cc1cnc(N(C)C)s1,O,0,0,6.08,['6.08'],['datawarrior']
3880,Cc1cnc(N)s1,O,0,0,5.71,['5.71'],['datawarrior']
3881,Cc1cnc(NCC(c2ccccc2)c2ccccc2)c(=O)n1CC(=O)NCc1ccc2c(N)noc2c1,O,0,0,8.6,['8.6'],['chembl25']
3882,Cc1cnc(NCC2(c3ccc(Cl)cc3)CCC2)c(=O)n1CC(=O)NCc1cnc(N)cn1,O,0,0,2.7,['2.7'],['chembl25']
3883,Cc1cnc(NCC2(c3ccc(F)cc3)CC2)c(=O)n1CC(=O)NCc1ccc2c(N)noc2c1,O,0,0,8.6,['8.6'],['chembl25']
3884,Cc1cnc(NCC2(c3ccccc3)CCC2)c(=O)n1CC(=O)NCc1ccc2c(N)noc2c1,O,0,0,8.6,['8.6'],['chembl25']
3885,Cc1cnc(NCCc2ccc(F)cc2)c(=O)n1CC(=O)NCc1ccc2c(N)noc2c1,O,0,0,8.6,['8.6'],['chembl25']
3886,Cc1cnc(NCCc2ccccc2)c(=O)n1CC(=O)NCc1ccc2c(N)noc2c1,O,0,0,8.6,['8.6'],['chembl25']
3887,Cc1cnc(NCCc2ccccc2)c(=O)n1CC(=O)NCc1cnc(N)cn1,O,0,0,2.7,['2.7'],['chembl25']
3888,Cc1cnc2c(c1)c(C)c(C)c1cc(C)cnc12,O,0,0,5.54,['5.54'],['datawarrior']
3889,Cc1cnc2c(c1)c(C)c(C)c1cccnc12,O,0,0,5.34,['5.34'],['datawarrior']
3890,Cc1cnc2c(c1)c(C)cc1c(C)c(C)cnc12,O,0,0,6.07,['6.07'],['datawarrior']
3891,Cc1cnc2c(c1)c(C)cc1c(C)ccnc12,O,0,0,5.9,['5.9'],['datawarrior']
3892,Cc1cnc2c(c1)cc(C)c1cc(C)cnc12,O,0,0,5.27,['5.27'],['datawarrior']
3893,Cc1cnc2c(cc(C)c3c(C)ccnc32)c1C,O,0,0,6.45,['6.45'],['datawarrior']
3894,Cc1cnc2c(cc(C)c3cccnc32)c1C,O,0,0,5.93,['5.93'],['datawarrior']
3895,Cc1cnc2c(ccc3c(C)c(C)cnc32)c1C,O,0,0,6.31,['6.31'],['datawarrior']
3896,Cc1cnc2c(ccc3c(C)ccnc32)c1,O,0,0,5.57,['5.57'],['datawarrior']
3897,Cc1cnc2c(ccc3c(C)ccnc32)c1C,O,0,0,5.99,['5.99'],['datawarrior']
3898,Cc1cnc2c(ccc3cc(C)cnc32)c1,O,0,0,5.23,['5.23'],['datawarrior']
3899,Cc1cnc2c(ccc3cccnc32)c1,O,0,0,5.0,['5.0'],['datawarrior']
3900,Cc1cnc2c(ccc3cccnc32)c1C,O,0,0,5.62,['5.62'],['datawarrior']
3901,Cc1cnc2ccccc2c1,O,0,0,5.15,['5.15'],['datawarrior']
3902,Cc1cnc2cncnc2n1,O,0,0,3.49,['3.49'],['datawarrior']
3903,Cc1cnc[nH]1,O,0,0,7.51,['7.51'],['datawarrior']
3904,Cc1cncc(C)c1,O,0,0,6.15,['6.15'],['datawarrior']
3905,Cc1cncc(C)n1,O,0,0,2.11,['2.11'],['datawarrior']
3906,Cc1cnn(C)c1C,O,0,0,3.58,['3.58'],['datawarrior']
3907,Cc1cnnc(C)c1,O,0,0,4.11,['4.11'],['datawarrior']
3908,Cc1cnncc1C,O,0,0,4.13,['4.13'],['datawarrior']
3909,Cc1coc(C)c1C(=O)[O-],O,0,0,4.55,['4.55'],['datawarrior']
3910,Cc1coc([C@H]2C[C@H]3[C@@H](C)SC(N)=[NH+][C@@]3(c3ccc(F)cc3F)CO2)n1,O,0,0,7.8,['7.8'],['chembl25']
3911,Cc1coc([C@H]2C[C@H]3[C@@H](CF)SC(N)=[NH+][C@@]3(c3ccc(F)cc3F)CO2)n1,O,0,0,7.0,['7.0'],['chembl25']
3912,Cc1csc(C(=O)[O-])c1,O,0,0,3.66,['3.66'],['datawarrior']
3913,Cc1csc(S(N)(=O)=O)n1,O,0,0,8.35,['8.35'],['datawarrior']
3914,Cc1csc2nccn12,O,0,0,5.36,['5.36'],['datawarrior']
3915,Cc1cscn1,O,0,0,3.14,['3.14'],['datawarrior']
3916,Cc1n[nH]c(=O)[nH]1,O,0,0,9.43,['9.43'],['datawarrior']
3917,Cc1n[nH]c(C)c1C,O,0,0,4.82,['4.82'],['datawarrior']
3918,Cc1n[nH]c(C)c1Cl,O,0,0,2.23,['2.23'],['datawarrior']
3919,Cc1n[nH]nc1-c1ccccc1,O,0,0,9.11,['9.11'],['chembl25']
3920,Cc1nc(-c2ccc(F)cc2F)n(C)c1CC(=O)NCc1ccc(F)cc1Cl,O,0,0,6.47,['6.47'],['chembl25']
3921,Cc1nc(-c2ccccc2)[nH]c1C,O,0,0,7.0,['7.0'],['datawarrior']
3922,Cc1nc(-c2ccccc2)oc1O,O,0,0,8.94,['8.94'],['datawarrior']
3923,Cc1nc(-c2ccccc2SCc2ccccc2)[nH]c1C,O,0,0,7.0,['7.0'],['datawarrior']
3924,Cc1nc(=S)s[nH]1,O,0,0,5.18,['5.18'],['datawarrior']
3925,Cc1nc(C(=O)Nc2ccc(N3CC[C@H]([NH+]4CCC[C@@H]4C)C3)cc2C)co1,O,0,0,10.1,['10.1'],['chembl25']
3926,Cc1nc(C(=O)[O-])cs1,O,0,0,3.9,['3.9'],['datawarrior']
3927,Cc1nc(C)c(C)nc1C,O,0,0,3.36,['3.36'],['datawarrior']
3928,Cc1nc(C)n2c1CN(C1CCN(C(=O)CCS(=O)(=O)c3ccc4cc(Cl)ccc4c3)CC1)C2=O,O,0,0,5.4,['5.4'],['chembl25']
3929,Cc1nc(C)nc(N)n1,O,0,0,3.6,['3.6'],['datawarrior']
3930,Cc1nc(CO)[nH]c1C,O,0,0,7.88,['7.88'],['datawarrior']
3931,Cc1nc(N(C)C)nc(OC(=O)N(C)C)c1C,O,0,0,4.53,['4.53'],['datawarrior']
3932,Cc1nc(N)c2cnn(-c3ccccc3)c2n1,O,0,0,4.52,['4.52'],['datawarrior']
3933,Cc1nc(N)c2cnn(C)c2n1,O,0,0,5.0,['5.0'],['datawarrior']
3934,Cc1nc(N)c2ncsc2n1,O,0,0,4.56,['4.56'],['datawarrior']
3935,Cc1nc(N)nc(N)n1,O,0,0,4.59,['4.59'],['datawarrior']
3936,Cc1nc([N-]S(=O)(=O)c2ccc(N)cc2)no1,O,0,0,4.4,['4.4'],['datawarrior']
3937,Cc1nc2c(/C=C/Cc3ccccc3)cccn2c1CC#N,O,0,0,5.7,['5.7'],['chembl25']
3938,Cc1nc2c(/C=C/Cc3ccccc3)cccn2c1N,O,0,0,6.75,['6.75'],['chembl25']
3939,Cc1nc2c(/C=C/c3ccccc3)cccn2c1C,O,0,0,7.2,['7.2'],['chembl25']
3940,Cc1nc2c(/C=C\c3ccccc3)cccn2c1C,O,0,0,7.2,['7.2'],['chembl25']
3941,Cc1nc2c(=O)[nH]c(=O)[nH]c2n1C,O,0,0,6.2,['6.2'],['datawarrior']
3942,Cc1nc2c(C/C=C/c3ccccc3)cccn2c1CC#N,O,0,0,6.0,['6.0'],['chembl25']
3943,Cc1nc2c(CCc3ccccc3)cccn2c1C,O,0,0,7.5,['7.5'],['chembl25']
3944,Cc1nc2c(CCc3ccccc3)cccn2c1CC#N,O,0,0,6.0,['6.0'],['chembl25']
3945,Cc1nc2c(CCc3ccccc3)cccn2c1N,O,0,0,7.3,['7.3'],['chembl25']
3946,Cc1nc2c(CCc3ccccc3)nccn2c1N,O,0,0,5.1,['5.1'],['chembl25']
3947,Cc1nc2c(N)cccc2[nH]1,O,0,0,8.1,['8.1'],['datawarrior']
3948,Cc1nc2c(N[C@H]3c4ccccc4C[C@@H]3O)cc(C(=O)N(C)C)cn2c1C,O,0,0,6.24,['6.24'],['chembl25']
3949,Cc1nc2c(N[C@H]3c4ccccc4C[C@@H]3O)cc(C(N)=O)cn2c1C,O,0,0,5.97,['5.97'],['chembl25']
3950,Cc1nc2c(OCc3ccccc3)cccn2c1C,O,0,0,7.0,['7.0'],['chembl25']
3951,Cc1nc2c(OCc3ccccc3)cccn2c1CC#N,O,0,0,6.093333,['6.093333'],['chembl25']
3952,Cc1nc2c(OCc3ccccc3)cccn2c1CO,O,0,0,6.1,['6.1'],['chembl25']
3953,Cc1nc2c(OCc3ccccc3)cccn2c1N,O,0,0,6.81,['6.81'],['chembl25']
3954,Cc1nc2c(OCc3ccccc3)nccn2c1C,O,0,0,4.8,['4.8'],['chembl25']
3955,Cc1nc2c(OCc3ccccc3)nccn2c1N,O,0,0,4.6,['4.6'],['chembl25']
3956,Cc1nc2c(O[C@H]3c4ccccc4C[C@@H]3O)cc(C(=O)N(C)C)cn2c1C,O,0,0,6.21,['6.21'],['chembl25']
3957,Cc1nc2c3c(c(C(=O)N(C)C)cc2n1C)CC[C@@H](c1ccc(Cl)cc1)O3,O,0,0,5.59,['5.59'],['chembl25']
3958,Cc1nc2c3c(c(C(=O)N(C)C)cc2n1C)CC[C@@H](c1ccc(Cl)cc1Cl)O3,O,0,0,5.36,['5.36'],['chembl25']
3959,Cc1nc2c3c(c(C(=O)N(C)C)cc2n1C)CC[C@@H](c1ccc(F)cc1)O3,O,0,0,5.65,['5.65'],['chembl25']
3960,Cc1nc2c3c(c(C(=O)N(C)C)cc2n1C)CC[C@@H](c1ccc2ccccc2c1)O3,O,0,0,5.57,['5.57'],['chembl25']
3961,Cc1nc2c3c(c(C(=O)N(C)C)cc2n1C)CC[C@@H](c1ccccc1C1CC1)O3,O,0,0,5.63,['5.63'],['chembl25']
3962,Cc1nc2c3c(c(C(=O)N(C)C)cc2n1C)CC[C@@H](c1ccccc1Cl)O3,O,0,0,5.45,['5.45'],['chembl25']
3963,Cc1nc2c3c(c(C(=O)N(C)C)cc2n1C)CC[C@@H](c1ccccc1F)O3,O,0,0,5.55,['5.55'],['chembl25']
3964,Cc1nc2c3c(c(C(=O)N(C)C)cn2c1Br)CCC(c1ccccc1)C3,O,0,0,5.11,['5.11'],['chembl25']
3965,Cc1nc2c3c(c(C(=O)N(C)C)cn2c1Br)CCC(c1ccccc1)O3,O,0,0,4.68,['4.68'],['chembl25']
3966,Cc1nc2c3c(c(C(=O)N(C)C)cn2c1C)CCC(c1ccc(F)cc1)O3,O,0,0,6.74,['6.74'],['chembl25']
3967,Cc1nc2c3c(c(C(=O)N(C)C)cn2c1C)CCC(c1ccccc1)C3,O,0,0,7.16,['7.16'],['chembl25']
3968,Cc1nc2c3c(c(C(=O)N(C)C)cn2c1C)CCC(c1ccccc1)O3,O,0,0,7.15,['7.15'],['chembl25']
3969,Cc1nc2c3c(c(C(=O)N(C)C)cn2c1C)CCC(c1ccccc1F)O3,O,0,0,6.78,['6.78'],['chembl25']
3970,Cc1nc2c3c(c(C(=O)N(C)C)cn2c1C)CCC(c1cccs1)O3,O,0,0,6.64,['6.64'],['chembl25']
3971,Cc1nc2c3c(c(C(=O)N(C)C)cn2c1C)CCC1(CCc2ccccc21)O3,O,0,0,6.84,['6.84'],['chembl25']
3972,Cc1nc2c3c(c(C(=O)N(C)C)cn2c1C)CCC1(Cc2ccccc2C1)O3,O,0,0,6.84,['6.84'],['chembl25']
3973,Cc1nc2c3c(c(C(=O)N(C)C)cn2c1CO)CCC(c1ccccc1)C3,O,0,0,6.32,['6.32'],['chembl25']
3974,Cc1nc2c3c(c(C(=O)N(C)C)cn2c1CO)CCC(c1ccccc1)O3,O,0,0,5.86,['5.86'],['chembl25']
3975,Cc1nc2c3c(c(C(=O)N4CC(F)(F)C4)cn2c1C)CCC1(CCc2ccccc21)O3,O,0,0,6.55,['6.55'],['chembl25']
3976,Cc1nc2c3c(c(C(=O)N4CC(F)C4)cn2c1C)CCC1(CCc2ccccc21)O3,O,0,0,6.65,['6.65'],['chembl25']
3977,Cc1nc2c3c(c(C(=O)N4CC(O)C4)cn2c1C)CCC(c1ccccc1)O3,O,0,0,6.63,['6.63'],['chembl25']
3978,Cc1nc2c3c(c(C(=O)N4CC4)cn2c1C)CCC(c1ccccc1)O3,O,0,0,6.63,['6.63'],['chembl25']
3979,Cc1nc2c3c(c(C(=O)N4CCC4)cn2c1C)CCC(c1ccccc1)O3,O,0,0,6.64,['6.64'],['chembl25']
3980,Cc1nc2c3c(c(C(=O)N4CCC4)cn2c1C)CCC1(CCc2ccccc21)O3,O,0,0,6.81,['6.81'],['chembl25']
3981,Cc1nc2c3c(c(C(=O)N4CCCC4)cn2c1C)CCC(c1ccccc1)C3,O,0,0,7.2,['7.2'],['chembl25']
3982,Cc1nc2c3c(c(C(=O)N4CCCC4)cn2c1C)CCC(c1ccccc1)O3,O,0,0,6.73,['6.73'],['chembl25']
3983,Cc1nc2c3c(c(C(=O)N4CCCC4)cn2c1C)CCC1(CCc2ccccc21)O3,O,0,0,6.88,['6.88'],['chembl25']
3984,Cc1nc2c3c(c(C(=O)N4CCCCC4)cn2c1C)CCC1(CCc2ccccc21)O3,O,0,0,6.81,['6.81'],['chembl25']
3985,Cc1nc2c3c(c(C(=O)N4CCOCC4)cn2c1C)CCC(c1ccccc1)C3,O,0,0,7.05,['7.05'],['chembl25']
3986,Cc1nc2c3c(c(C(=O)N4CCOCC4)cn2c1C)CCC1(CCc2ccccc21)O3,O,0,0,6.74,['6.74'],['chembl25']
3987,Cc1nc2c3c(c(C(=O)NC4CC4)cn2c1C)CCC(c1ccccc1)O3,O,0,0,6.69,['6.69'],['chembl25']
3988,Cc1nc2c3c(c(C(=O)NC4CC4)cn2c1C)CCC1(CCc2ccccc21)O3,O,0,0,6.76,['6.76'],['chembl25']
3989,Cc1nc2c3c(c(C(=O)NC4CCC4)cn2c1C)CCC(c1ccccc1)O3,O,0,0,6.68,['6.68'],['chembl25']
3990,Cc1nc2c3c(c(C(=O)NCCO)cn2c1C)CCC(c1ccccc1)C3,O,0,0,7.22,['7.22'],['chembl25']
3991,Cc1nc2c3c(c(C(=O)Nc4ccccc4)cn2c1C)CCC(c1ccccc1)O3,O,0,0,6.59,['6.59'],['chembl25']
3992,Cc1nc2c3c(c(C(=O)Nc4ccccc4)cn2c1C)CCC1(CCc2ccccc21)O3,O,0,0,6.76,['6.76'],['chembl25']
3993,Cc1nc2c3c(c(C(N)=O)cn2c1C)CCC(c1ccccc1)C3,O,0,0,7.26,['7.26'],['chembl25']
3994,Cc1nc2c3c(c(C(N)=O)cn2c1C)CCC(c1ccccc1)O3,O,0,0,6.52,['6.52'],['chembl25']
3995,Cc1nc2c3c(ccn2c1C)CCC(c1ccccc1)C3,O,0,0,8.05,['8.05'],['chembl25']
3996,Cc1nc2c3c(ccn2c1C)CCC(c1ccccc1)O3,O,0,0,7.73,['7.73'],['chembl25']
3997,Cc1nc2c3c(ccn2c1CC#N)CCC(c1ccccc1)O3,O,0,0,6.0,['6.0'],['chembl25']
3998,Cc1nc2c3ccccc3cc[n+]2c(C)c1O,O,0,0,4.0,['4.0'],['chembl25']
3999,Cc1nc2cc(N)ccc2n1C,O,0,0,7.0,['7.0'],['datawarrior']
4000,Cc1nc2cccc(N)c2n1C,O,0,0,6.66,['6.66'],['datawarrior']
4001,Cc1nc2ccccc2[nH]1,O,0,0,6.26,['6.26'],"['datawarrior', 'chembl25']"
4002,Cc1nc2ccccc2[nH]c1=O,O,0,0,9.88,['9.88'],['datawarrior']
4003,Cc1nc2ccccc2n1C,O,0,0,6.55,['6.55'],['datawarrior']
4004,Cc1nc2ccncc2n2c(-c3ccccc3Cl)nnc12,O,0,0,2.7,['2.7'],['chembl25']
4005,Cc1nc2cncnc2nc1C,O,0,0,2.93,['2.93'],['datawarrior']
4006,Cc1nc2sccn2c(=O)c1CC[NH+]1CCC(=C(c2ccc(F)cc2)c2ccc(F)cc2)CC1,O,0,0,8.2,['8.2'],['chembl25']
4007,Cc1nc[nH]c1C,O,0,0,8.19,['8.19'],['datawarrior']
4008,Cc1ncc(C(=O)[O-])s1,O,0,0,3.26,['3.26'],['datawarrior']
4009,Cc1ncc(C)c(N)n1,O,0,0,6.5,['6.5'],['chembl25']
4010,Cc1ncc(CN(C=O)C(C)C(=S)CCO)c(N)n1,O,0,0,4.19,['4.19'],['datawarrior']
4011,Cc1ncc(CO)c(C)c1OCc1ccccc1,O,0,0,5.52,['5.52'],['datawarrior']
4012,Cc1ncc2cc(-c3c(Cl)cccc3Cl)c(NC(=O)c3ccco3)nc2n1,O,0,0,4.3,['4.3'],['chembl25']
4013,Cc1ncc2nc(C)c(C)nc2n1,O,0,0,3.76,['3.76'],['datawarrior']
4014,Cc1ncc2nccnc2n1,O,0,0,4.87,['4.87'],['datawarrior']
4015,Cc1ncc[nH]1,O,0,0,7.896667,['7.896667'],"['datawarrior', 'chembl25']"
4016,Cc1nccc2c1[nH]c1ccccc12,O,0,0,6.55,['6.55'],['datawarrior']
4017,Cc1nccn1C,O,0,0,7.64,['7.64'],['datawarrior']
4018,Cc1nccn1CC1CCc2c(c3ccccc3n2C)C1=O,O,0,0,7.3,['7.3'],['chembl25']
4019,Cc1nccn1CCC1CCN(C(=O)CCS(=O)(=O)c2ccc3cc(Cl)ccc3c2)CC1,O,0,0,7.9,['7.9'],['chembl25']
4020,Cc1ncnc2c1NCCN2,O,0,0,6.74,['6.74'],['datawarrior']
4021,Cc1ncnc2ccccc12,O,0,0,2.52,['2.52'],['datawarrior']
4022,Cc1ncnc2nccnc12,O,0,0,2.92,['2.92'],['datawarrior']
4023,Cc1ncncc1N,O,0,0,3.15,['3.15'],['datawarrior']
4024,Cc1ncsc1C(=O)[O-],O,0,0,3.54,['3.54'],['datawarrior']
4025,Cc1nn(-c2ccccc2)cc1C(=O)[O-],O,0,0,4.58,['4.58'],['datawarrior']
4026,Cc1nn(C)c(C)c1C,O,0,0,4.48,['4.48'],['datawarrior']
4027,Cc1nn(C)c2c1C(c1ccccc1F)N=CC(=O)N2C,O,0,0,4.69,['4.69'],['datawarrior']
4028,Cc1nn[n-]n1,O,0,0,5.21,['5.21'],"['datawarrior', 'chembl25']"
4029,Cc1nnc(C)c(C)c1C,O,0,0,5.36,['5.36'],['datawarrior']
4030,Cc1nnc(C)c(C)n1,O,0,0,2.85,['2.85'],['datawarrior']
4031,Cc1nnc(C)n1O,O,0,0,6.5,['6.5'],['datawarrior']
4032,Cc1nnc(N)nc1C,O,0,0,3.71,['3.71'],['datawarrior']
4033,Cc1nnc(NS(=O)(=O)c2ccc(N)cc2)s1,O,0,0,5.34,['5.34'],"['datawarrior', 'chembl25']"
4034,Cc1nnc(SCC2CS[C@@H]3C(=NC(=O)Cn4cnnn4)C(=O)N3C2C(=O)[O-])s1,O,0,0,2.1,['2.1'],['chembl25']
4035,Cc1nnc2c(c1C)CCC2,O,0,0,5.36,['5.36'],['datawarrior']
4036,Cc1nnc2c(c1C)CCCC2,O,0,0,5.41,['5.41'],['datawarrior']
4037,Cc1nnn(CC(=O)[O-])n1,O,0,0,2.23,['2.23'],['datawarrior']
4038,Cc1nnnn1CC(=O)[O-],O,0,0,2.16,['2.16'],['datawarrior']
4039,Cc1noc(C2=CC(C)C[NH+](C)C2)n1,O,0,0,7.34,['7.34'],['chembl25']
4040,Cc1noc(C2=CC(C)C[NH2+]C2)n1,O,0,0,8.17,['8.17'],['chembl25']
4041,Cc1noc(C2=CCC(C)[NH+](C)C2)n1,O,0,0,7.35,['7.35'],['chembl25']
4042,Cc1noc(C2=CCC(C)[NH2+]C2)n1,O,0,0,8.2,['8.2'],['chembl25']
4043,Cc1noc(C2=CCC[NH+](C)C2)n1,O,0,0,7.16,['7.16'],['chembl25']
4044,Cc1noc(C2=CCC[NH2+]C2)n1,O,0,0,8.24,['8.24'],['chembl25']
4045,Cc1noc(C2CN(C)CC[NH2+]2)n1,O,0,0,6.2,['6.2'],['chembl25']
4046,Cc1noc(C2CN3CC[NH+]2CC3)n1,O,0,0,6.0,['6.0'],['chembl25']
4047,Cc1noc(C[NH+](C)C)n1,O,0,0,5.6,['5.6'],['chembl25']
4048,Cc1nonc1CN=O,O,0,0,9.15,['9.15'],['chembl25']
4049,Cc1nonc1[N-]S(=O)(=O)c1ccc(N)cc1,O,0,0,4.0,['4.0'],['datawarrior']
4050,Cc1oc2ccccc2c(=O)c1C(=O)c1cc(I)c([O-])c(I)c1,O,0,0,4.89,['4.89'],['chembl25']
4051,Cc1oc2ccccc2c(=O)c1C(=O)c1ccc(O)cc1,O,0,0,7.74,['7.74'],['chembl25']
4052,Cc1oc2ccccc2c1C(=O)c1cc(I)c([O-])c(I)c1,O,0,0,5.2,['5.2'],['chembl25']
4053,Cc1oc2ccccc2c1C(=O)c1ccc(O)cc1,O,0,0,8.4,['8.4'],['chembl25']
4054,Cc1oc2ccccc2c1C(=O)c1cccc(O)c1,O,0,0,8.4,['8.4'],['chembl25']