,Solute SMILES,Solvent SMILES,Solute CAS,Solute IUPAC,pKa (avg),pKa (all),Source
4336,N#Cc1ccc(S(=O)(=O)NCc2ccccc2)cc1,O,0,0,10.35,['10.35'],['datawarrior']
4337,N#Cc1ccc(S(=O)(=O)Nc2cc3c(=O)[nH]ccc3cc2F)cc1,O,0,0,5.97,['5.97'],['chembl25']
4338,N#Cc1ccc(S(=O)(=O)Nc2ccc3cc[nH]c(=O)c3c2)cc1,O,0,0,6.93,['6.93'],['chembl25']
4339,N#Cc1ccc([O-])cc1,O,0,0,7.89,['7.89'],['datawarrior']
4340,N#Cc1ccc2c(c1)C([P+](c1ccccc1)(c1ccccc1)c1ccccc1)c1ccccc1-2,O,0,0,5.81,['5.81'],['datawarrior']
4341,N#Cc1ccc2c(c1)CCN2,O,0,0,2.8,['2.8'],['datawarrior']
4342,N#Cc1ccc2c(c1)N(CCC[NH+]1CCC(O)CC1)c1ccccc1S2,O,0,0,8.63,['8.63'],['chembl25']
4343,N#Cc1cccc(-c2cccc(-c3nn[n-]n3)c2)c1,O,0,0,4.0,['4.0'],['chembl25']
4344,N#Cc1cccc(-c2nn[n-]n2)c1,O,0,0,3.45,['3.45'],['datawarrior']
4345,N#Cc1cccc(C(=O)[O-])c1,O,0,0,3.6,['3.6'],['datawarrior']
4346,N#Cc1cccc(N)c1,O,0,0,2.83,['2.83'],['datawarrior']
4347,N#Cc1cccc(NS(=O)(=O)c2ccccc2)c1,O,0,0,7.15,['7.15'],['datawarrior']
4348,N#Cc1cccc(O)c1,O,0,0,8.63,['8.63'],['datawarrior']
4349,N#Cc1cccc(S(N)(=O)=O)c1,O,0,0,8.84,['8.84'],['datawarrior']
4350,N#Cc1ccccc1-c1nn[n-]n1,O,0,0,3.55,['3.55'],['datawarrior']
4351,N#Cc1ccccc1[O-],O,0,0,7.32,['7.32'],['datawarrior']
4352,N#Cc1cccnc1N1CC[NH+](CCNC(=O)c2ccc(F)cc2)CC1,O,0,0,6.4,['6.4'],['chembl25']
4353,N#Cc1cn([C@@H]2O[C@H](CO)[C@@H](O)[C@@H]2O)c(=O)[nH]c1=O,O,0,0,6.8,['6.8'],['chembl25']
4354,N#Cc1cn([C@H]2C[C@H](O)[C@@H](CO)O2)c(=O)[nH]c1=O,O,0,0,6.8,['6.8'],['chembl25']
4355,N#Cc1ncnc2nc[nH]c12,O,0,0,6.88,['6.88'],['datawarrior']
4356,N/C=[NH+]/O,O,0,0,5.05,['5.05'],['datawarrior']
4357,N=C(SCc1ccccc1)c1ccccc1,O,0,0,4.43,['4.43'],['datawarrior']
4358,N=C(Sc1ccccc1)c1ccccc1,O,0,0,4.48,['4.48'],['datawarrior']
4359,N=C(c1ccccc1)c1cccc(Cl)c1,O,0,0,5.69,['5.69'],['datawarrior']
4360,N=C(c1ccccc1)c1ccccc1,O,0,0,6.82,['6.82'],['datawarrior']
4361,N=C(c1ccccc1)c1ccccc1Cl,O,0,0,5.59,['5.59'],['datawarrior']
4362,N=C1CCCC1,O,0,0,8.95,['8.95'],['datawarrior']
4363,N=C1CCCCC1,O,0,0,9.15,['9.15'],['datawarrior']
4364,N=C1CCCc2c1c(=O)c(=NS(=O)(=O)c1ccccc1)c(=Nc1ccccc1)c2=O,O,0,0,8.2,['8.2'],['chembl25']
4365,NC(=O)C#CC#C/C=C/C(=O)[O-],O,0,0,3.52,['3.52'],['datawarrior']
4366,NC(=O)C(CC(=O)[O-])c1ccccc1,O,0,0,4.23,['4.23'],['datawarrior']
4367,NC(=O)C(CCC(=O)[O-])c1ccccc1,O,0,0,4.64,['4.64'],['datawarrior']
4368,NC(=O)C(CCCCC(=O)[O-])c1ccccc1,O,0,0,4.79,['4.79'],['datawarrior']
4369,NC(=O)C(N)=S,O,0,0,11.5,['11.5'],['datawarrior']
4370,NC(=O)C([NH3+])CO,O,0,0,7.3,['7.3'],['datawarrior']
4371,NC(=O)C([NH3+])Cc1c[nH]c2ccccc12,O,0,0,7.55,['7.55'],['datawarrior']
4372,NC(=O)C([NH3+])Cc1ccccc1,O,0,0,7.33,['7.33'],['datawarrior']
4373,NC(=O)C(c1ccccc1)c1ccccn1,O,0,0,3.8,['3.8'],['datawarrior']
4374,NC(=O)C1CC2CC[NH+]1CC2,O,0,0,9.04,['9.04'],['datawarrior']
4375,NC(=O)C1CCCC[NH2+]1,O,0,0,8.9,['8.9'],['datawarrior']
4376,NC(=O)C1CCN(c2c(Cl)c[nH+]cc2Cl)CC1,O,0,0,3.5,['3.5'],['chembl25']
4377,NC(=O)C1CCN(c2c(S(=O)(=O)c3ccccc3)c[nH+]c3ccc(Cl)cc23)CC1,O,0,0,3.05,['3.05'],['chembl25']
4378,NC(=O)C1C[NH+]2CCC1CC2,O,0,0,9.74,['9.74'],['datawarrior']
4379,NC(=O)CC(=O)[O-],O,0,0,3.61,['3.61'],['datawarrior']
4380,NC(=O)CCCCCCCCC(=O)NO,O,0,0,9.49,['9.49'],['datawarrior']
4381,NC(=O)CCCCCCCCc1ccc(Nc2c3ccccc3nc3ccccc23)cc1,O,0,0,7.7,['7.7'],['chembl25']
4382,NC(=O)CCCCCCCc1ccc(Nc2c3ccccc3nc3ccccc23)cc1,O,0,0,7.7,['7.7'],['chembl25']
4383,NC(=O)CCCCCCc1ccc(Nc2c3ccccc3nc3ccccc23)cc1,O,0,0,7.7,['7.7'],['chembl25']
4384,NC(=O)CCCCCc1ccc(Nc2c3ccccc3nc3ccccc23)cc1,O,0,0,7.7,['7.7'],['chembl25']
4385,NC(=O)CCCCc1ccc(Nc2c3ccccc3nc3ccccc23)cc1,O,0,0,7.7,['7.7'],['chembl25']
4386,NC(=O)CCCCc1ccccn1,O,0,0,5.73,['5.73'],['datawarrior']
4387,NC(=O)CCCCc1cccnc1,O,0,0,5.6,['5.6'],['datawarrior']
4388,NC(=O)CCCCc1ccncc1,O,0,0,5.92,['5.92'],['datawarrior']
4389,NC(=O)CCCc1ccc(Nc2c3ccccc3nc3ccccc23)cc1,O,0,0,7.67,['7.67'],['chembl25']
4390,NC(=O)CCCc1ccccn1,O,0,0,5.48,['5.48'],['datawarrior']
4391,NC(=O)CCCc1cccnc1,O,0,0,5.33,['5.33'],['datawarrior']
4392,NC(=O)CCCc1ccncc1,O,0,0,5.64,['5.64'],['datawarrior']
4393,NC(=O)CC[NH+]1CCC[C@H](OCc2cc(C(F)(F)F)cc(C(F)(F)F)c2)[C@@H]1c1ccccc1,O,0,0,6.5,['6.5'],['chembl25']
4394,NC(=O)CCc1ccc(Nc2c3ccccc3nc3ccccc23)cc1,O,0,0,7.63,['7.63'],['chembl25']
4395,NC(=O)CCc1ccccn1,O,0,0,5.09,['5.09'],['datawarrior']
4396,NC(=O)CCc1cccnc1,O,0,0,5.21,['5.21'],['datawarrior']
4397,NC(=O)CCc1ccncc1,O,0,0,5.58,['5.58'],['datawarrior']
4398,NC(=O)CN1CC[NH+]([C@@H](COCc2cc(C(F)(F)F)cc(C(F)(F)F)c2)c2ccccc2)CC1,O,0,0,6.2,['6.2'],['chembl25']
4399,NC(=O)CN1CC[NH+]([C@H](COCc2cc(C(F)(F)F)cc(C(F)(F)F)c2)c2ccccc2)CC1,O,0,0,6.2,['6.2'],['chembl25']
4400,NC(=O)COCCN1CC[NH+](C(COCc2cc(C(F)(F)F)cc(C(F)(F)F)c2)c2ccccc2)CC1,O,0,0,7.4,['7.4'],['chembl25']
4401,NC(=O)CS,O,0,0,8.22,['8.22'],['datawarrior']
4402,NC(=O)CS(=O)(=O)NC(N)=O,O,0,0,5.05,['5.05'],['datawarrior']
4403,NC(=O)CS(N)(=O)=O,O,0,0,9.7,['9.7'],['datawarrior']
4404,NC(=O)C[C@H]([NH3+])C(N)=O,O,0,0,7.0,['7.0'],['datawarrior']
4405,NC(=O)C[NH+]1CCC[C@H](OCc2cc(C(F)(F)F)cc(C(F)(F)F)c2)[C@@H]1c1ccccc1,O,0,0,5.4,['5.4'],['chembl25']
4406,NC(=O)C[NH2+]C1CCC(OCc2cc(C(F)(F)F)cc(C(F)(F)F)c2)C1c1ccccc1,O,0,0,6.6,['6.6'],['chembl25']
4407,NC(=O)C[NH2+][C@@H]1CC[C@H](OCc2cc(C(F)(F)F)cc(C(F)(F)F)c2)[C@H]1c1ccccc1,O,0,0,6.6,['6.6'],['chembl25']
4408,NC(=O)C[NH3+],O,0,0,8.05,['8.05'],['datawarrior']
4409,NC(=O)Cc1ccc(C(=O)[O-])cc1,O,0,0,4.06,['4.06'],['datawarrior']
4410,NC(=O)Cc1ccc(Nc2c3ccccc3nc3ccccc23)cc1,O,0,0,7.43,['7.43'],['chembl25']
4411,NC(=O)Cc1ccccn1,O,0,0,4.34,['4.34'],['datawarrior']
4412,NC(=O)Cc1cccnc1,O,0,0,4.72,['4.72'],['datawarrior']
4413,NC(=O)Cc1ccncc1,O,0,0,5.08,['5.08'],['datawarrior']
4414,NC(=O)NO,O,0,0,10.65,['10.65'],['chembl25']
4415,NC(=O)[C@@H](O)[C@H]([NH3+])C(=O)[O-],O,0,0,8.26,['8.26'],['datawarrior']
4416,NC(=O)[C@@H]([NH3+])Cc1ccccc1,O,0,0,7.26,['7.26'],['datawarrior']
4417,NC(=O)[C@@H]1CCC[NH2+]1,O,0,0,8.82,['8.82'],['datawarrior']
4418,NC(=O)[C@H](CCC(=O)[O-])NC=O,O,0,0,4.3,['4.3'],['datawarrior']
4419,NC(=O)c1ccc(CNC(=O)c2cnc(Nc3cccc(Cl)c3)cc2C(F)(F)F)cc1,O,0,0,2.63,['2.63'],['chembl25']
4420,NC(=O)c1ccc(Nc2c3ccccc3nc3ccccc23)cc1,O,0,0,6.47,['6.47'],['chembl25']
4421,NC(=O)c1ccccc1C(=O)[O-],O,0,0,3.75,['3.75'],['datawarrior']
4422,NC(=O)c1ccccc1O,O,0,0,8.61,['8.61'],['datawarrior']
4423,NC(=O)c1cccnc1,O,0,0,3.32,['3.32'],['datawarrior']
4424,NC(=O)c1ccncc1,O,0,0,3.57,['3.57'],['datawarrior']
4425,NC(=O)c1cncc2ccccc12,O,0,0,3.8,['3.8'],['datawarrior']
4426,NC(=O)c1noc([C@H](CCCC2CCCCC2)CC(=O)NO)n1,O,0,0,9.0,['9.0'],['chembl25']
4427,NC(=S)C(N)=S,O,0,0,10.89,['10.89'],['datawarrior']
4428,NC(=S)C[NH3+],O,0,0,7.27,['7.27'],['datawarrior']
4429,NC(=[NH+]Cc1c[nH]c2ccccc12)C(Cl)(Cl)Cl,O,0,0,6.0,['6.0'],['chembl25']
4430,NC(=[NH+]c1nsc2ccccc12)c1ccc(Cl)cc1,O,0,0,4.84,['4.84'],['chembl25']
4431,NC(=[NH+]c1nsc2ccccc12)c1ccccc1,O,0,0,5.4,['5.4'],['chembl25']
4432,NC(=[NH2+])N(CC1CC1)c1c(Br)cccc1Br,O,0,0,11.9,['11.9'],['chembl25']
4433,NC(=[NH2+])N(c1ccccc1)c1ccccc1,O,0,0,10.42,['10.42'],['datawarrior']
4434,NC(=[NH2+])N1C2CC(OC(=O)C(CO)c3ccccc3)CC1C1OC12,O,0,0,10.84,['10.84'],['chembl25']
4435,NC(=[NH2+])N1C2CCC1CC(OC(=O)C(CO)c1ccccc1)C2,O,0,0,11.6,['11.6'],['chembl25']
4436,NC(=[NH2+])N=NCc1ccc(Cl)c(Cl)c1,O,0,0,8.4,['8.4'],['chembl25']
4437,NC(=[NH2+])NC(=O)c1ccccc1,O,0,0,6.98,['6.98'],['chembl25']
4438,NC(=[NH2+])Oc1ccccc1,O,0,0,8.29,['8.29'],['chembl25']
4439,NC(=[NH2+])c1ccccc1,O,0,0,11.8,['11.8'],['datawarrior']
4440,NC(N)=[NH+]c1ccccc1,O,0,0,10.835,['10.835'],"['datawarrior', 'chembl25']"
4441,NC(N)=[NH+]c1nccc(-c2csc(N)n2)n1,O,0,0,9.2,['9.2'],['datawarrior']
4442,NC(Nc1ccccc1)=[NH+]c1ccccc1,O,0,0,9.94,['9.94'],['datawarrior']
4443,NC1=NS(=O)N=C1Nc1cccc(-c2csc([NH+]=C(N)N)n2)c1,O,0,0,7.55,['7.55'],['chembl25']
4444,NC1=[NH+]C(c2ccc(OC(F)F)cc2)(c2cccc(-c3cncnc3)c2)C2=[NH+]CC(F)(F)CN12,O,0,0,6.1,['6.1'],['chembl25']
4445,NC1=[NH+]C(c2ccc(OC(F)F)cc2)(c2cccc(OCCCF)c2)C2=[NH+]CC(F)(F)CN12,O,0,0,6.5,['6.5'],['chembl25']
4446,NC1=[NH+]C(c2cccc(-c3cncnc3)c2)(c2ccnc(C(F)(F)F)c2)c2cccc(F)c21,O,0,0,6.9,['6.9'],['chembl25']
4447,NC1=[NH+]C(c2cccc(-c3cncnc3)c2)(c2ccnc(C(F)F)c2)c2cccc(F)c21,O,0,0,6.8,['6.8'],['chembl25']
4448,NC1=[NH+]C(c2ccnc(C(F)(F)F)c2)(c2ccc(F)c(-c3cncnc3)c2)c2cccc(F)c21,O,0,0,6.4,['6.4'],['chembl25']
4449,NC1=[NH+]C2(CCc3ccc(NC(=O)c4ccc(Cl)cn4)cc32)CO1,O,0,0,8.3,['8.3'],['chembl25']
4450,NC1=[NH+]C2(CCc3ccc(NC(=O)c4ccc(Cl)cn4)cc32)CS1,O,0,0,8.3,['8.3'],['chembl25']
4451,NC1=[NH+]C23CCC(NC(=O)c4cccc(Cl)c4)CC2(COC3)CS1,O,0,0,8.2,['8.2'],['chembl25']
4452,NC1=[NH+]C2CCC(NC(=O)c3cccc(Cl)c3)CC2CS1,O,0,0,9.7,['9.7'],['chembl25']
4453,NC1=[NH+][C@@](c2cccc(-c3cncnc3)c2)(c2ccnc(C(F)F)c2)c2cc(F)cc(F)c21,O,0,0,6.2,['6.2'],['chembl25']
4454,NC1=[NH+][C@@](c2cccc(-c3cncnc3)c2)(c2ccnc(C(F)F)c2)c2cccc(F)c21,O,0,0,7.1,['7.1'],['chembl25']
4455,NC1=[NH+][C@@]2(c3cccc(NC(=O)c4ccc(Cl)cn4)c3)C[C@H]2CCS1,O,0,0,8.9,['8.9'],['chembl25']
4456,NC1=[NH+][C@](c2ccc(OC(F)F)cc2)(c2cccc(OCCF)c2)C2=[NH+]CC(F)(F)CN12,O,0,0,6.5,['6.5'],['chembl25']
4457,NC1=[NH+][C@]23CC[C@H](NC(=O)c4cccc(Cl)c4)C[C@@H]2[C@@H](COC3)S1,O,0,0,9.0,['9.0'],['chembl25']
4458,NC1=[NH+]c2c(F)cc(Cl)cc2[C@H]2CCC[C@@H]12,O,0,0,8.2,['8.2'],['chembl25']
4459,NC1=[NH+]c2c(F)cccc2[C@H]2CCC[C@@H]12,O,0,0,8.5,['8.5'],['chembl25']
4460,NC1=[NH+]c2c(F)cccc2[C@H]2CCC[C@@]12F,O,0,0,6.6,['6.6'],['chembl25']
4461,NC1=[NH+]c2c(ccc(F)c2F)[C@H]2CCC[C@@H]12,O,0,0,8.0,['8.0'],['chembl25']
4462,NC1=[NH+]c2ccc(Cl)cc2[C@H]2CCC[C@@H]12,O,0,0,9.4,['9.4'],['chembl25']
4463,NC1=[NH+]c2ccc(Cl)cc2[C@H]2CCC[C@@]12F,O,0,0,7.6,['7.6'],['chembl25']
4464,NC1=[NH+]c2ccccc2C1,O,0,0,8.15,['8.15'],['datawarrior']
4465,NC1=[NH+]c2ccccc2[C@H]2CCC[C@@H]12,O,0,0,9.7,['9.7'],['chembl25']
4466,NC1=[NH+]c2ccccc2[C@H]2CCC[C@@]12F,O,0,0,7.9,['7.9'],['chembl25']
4467,NC1NC=C[NH2+]1,O,0,0,8.46,['8.46'],['chembl25']
4468,NCC(F)(F)F,O,0,0,5.7,['5.7'],['chembl25']
4469,NCC(F)F,O,0,0,7.195,['7.195'],"['datawarrior', 'chembl25']"
4470,NCCC(F)(F)F,O,0,0,8.7,['8.7'],['chembl25']
4471,NCC[n+]1cc(Br)c2ccccc2c1,O,0,0,6.71,['6.71'],['datawarrior']
4472,NCC[n+]1ccc2ccccc2c1,O,0,0,6.85,['6.85'],['datawarrior']
4473,NNC(=O)C(F)(F)C1(F)OC(F)(F)C(F)(F)C1(F)F,O,0,0,8.26,['8.26'],['datawarrior']
4474,NNC(=O)C[NH3+],O,0,0,7.69,['7.69'],['datawarrior']
4475,NNC(=O)[C@@H]([NH3+])Cc1ccccc1,O,0,0,7.06,['7.06'],['datawarrior']
4476,NNC(=O)c1ccccc1,O,0,0,3.02,['3.02'],['datawarrior']
4477,NNC(=O)c1ccccn1,O,0,0,2.86,['2.86'],['datawarrior']
4478,NNC(=O)c1cccnc1,O,0,0,3.27,['3.27'],['datawarrior']
4479,NNC=O,O,0,0,2.81,['2.81'],['datawarrior']
4480,NNCCCc1ccccc1,O,0,0,7.2,['7.2'],['datawarrior']
4481,NNCCO,O,0,0,7.12,['7.12'],['datawarrior']
4482,NNCCOc1ccccc1,O,0,0,6.8,['6.8'],['datawarrior']
4483,NNCCc1ccccc1,O,0,0,7.25,['7.25'],['datawarrior']
4484,NNc1nncc2ccccc12,O,0,0,5.816667,['5.816667'],"['datawarrior', 'chembl25']"
4485,NOCc1ccc(Cl)cc1,O,0,0,4.22,['4.22'],['datawarrior']
4486,NOCc1ccccc1,O,0,0,4.34,['4.34'],['datawarrior']
4487,NP(=O)([O-])N(CCCl)CCCl,O,0,0,4.766667,['4.766667'],['chembl25']
4488,NS(=O)(=O)C(F)(F)Br,O,0,0,6.53,['6.53'],['datawarrior']
4489,NS(=O)(=O)C(F)(F)Cl,O,0,0,6.5,['6.5'],['datawarrior']
4490,NS(=O)(=O)C(F)(F)F,O,0,0,8.015,['8.015'],"['datawarrior', 'chembl25']"
4491,NS(=O)(=O)C(F)(F)I,O,0,0,6.79,['6.79'],['datawarrior']
4492,NS(=O)(=O)C1=NN2CCS(=O)(=O)N=C2S1,O,0,0,6.7,['6.7'],['chembl25']
4493,NS(=O)(=O)CCc1ccccc1,O,0,0,10.04,['10.04'],['chembl25']
4494,NS(=O)(=O)Oc1ccc(C(=O)OC2CCCC2)cc1,O,0,0,8.73,['8.73'],['chembl25']
4495,NS(=O)(=O)Oc1ccc(C(=O)OC2CCCCC2)cc1,O,0,0,8.81,['8.81'],['chembl25']
4496,NS(=O)(=O)Oc1ccc(C(=O)OC2CCCCCC2)cc1,O,0,0,8.88,['8.88'],['chembl25']
4497,NS(=O)(=O)Oc1ccc(C(=O)OC2CCCCCCC2)cc1,O,0,0,8.09,['8.09'],['chembl25']
4498,NS(=O)(=O)Oc1ccc2c3c(c(=O)oc2c1)CCCCC3,O,0,0,8.27,['8.27'],['chembl25']
4499,NS(=O)(=O)c1cc2c(cc1Cl)NC=NS2(=O)=O,O,0,0,7.633333,['7.633333'],"['datawarrior', 'chembl25']"
4500,NS(=O)(=O)c1cc2c(s1)C(=O)CCS2,O,0,0,8.45,['8.45'],['chembl25']
4501,NS(=O)(=O)c1cc2c(s1)C(=O)CCS2(=O)=O,O,0,0,7.32,['7.32'],['chembl25']
4502,NS(=O)(=O)c1cc2c(s1)C(O)CCS2,O,0,0,9.0,['9.0'],['chembl25']
4503,NS(=O)(=O)c1cc2c(s1)C(O)CCS2(=O)=O,O,0,0,8.34,['8.34'],['chembl25']
4504,NS(=O)(=O)c1cc2c(s1)C(O)CCS2=O,O,0,0,8.82,['8.82'],['chembl25']
4505,NS(=O)(=O)c1cc2c(s1)CC(O)CS2(=O)=O,O,0,0,8.52,['8.52'],['chembl25']
4506,NS(=O)(=O)c1cc2c(s1)S(=O)(=O)CC(O)C2,O,0,0,8.6,['8.6'],['chembl25']
4507,NS(=O)(=O)c1cc2c(s1)S(=O)(=O)CCC2,O,0,0,8.35,['8.35'],['chembl25']
4508,NS(=O)(=O)c1cc2c(s1)S(=O)(=O)CCC2=O,O,0,0,7.92,['7.92'],['chembl25']
4509,NS(=O)(=O)c1cc2c(s1)S(=O)(=O)CCC2O,O,0,0,8.275,['8.275'],['chembl25']
4510,NS(=O)(=O)c1cc2c(s1)S(=O)(=O)CC[C@@H]2O,O,0,0,8.3,['8.3'],['chembl25']
4511,NS(=O)(=O)c1cc2c(s1)S(=O)(=O)CC[C@H]2O,O,0,0,8.35,['8.35'],['chembl25']
4512,NS(=O)(=O)c1cc2c(s1)S(=O)CCC2O,O,0,0,8.68,['8.68'],['chembl25']
4513,NS(=O)(=O)c1cc2c(s1)SC(CCO)CN2,O,0,0,9.62,['9.62'],['chembl25']
4514,NS(=O)(=O)c1cc2c(s1)SCCC2=O,O,0,0,8.6,['8.6'],['chembl25']
4515,NS(=O)(=O)c1cc2c(s1)SCCC2O,O,0,0,9.4,['9.4'],['chembl25']
4516,NS(=O)(=O)c1ccc(C(F)(F)F)cc1,O,0,0,9.4,['9.4'],['chembl25']
4517,NS(=O)(=O)c1ccc(CCCCCO)cc1,O,0,0,10.28,['10.28'],['chembl25']
4518,NS(=O)(=O)c1ccc(CCCCO)cc1,O,0,0,10.32,['10.32'],['chembl25']
4519,NS(=O)(=O)c1ccc(CCCO)cc1,O,0,0,10.23,['10.23'],['chembl25']
4520,NS(=O)(=O)c1ccc(Cl)c(Cl)c1,O,0,0,8.94,['8.94'],['datawarrior']
4521,NS(=O)(=O)c1ccc(Cl)cc1,O,0,0,9.725,['9.725'],"['datawarrior', 'chembl25']"
4522,NS(=O)(=O)c1ccc(F)cc1,O,0,0,9.34,['9.34'],['datawarrior']
4523,NS(=O)(=O)c1ccc(S(=O)(=O)CC(O)CO)cc1,O,0,0,9.35,['9.35'],['chembl25']
4524,NS(=O)(=O)c1ccc(S(=O)(=O)CCCCO)c(F)c1,O,0,0,9.18,['9.18'],['chembl25']
4525,NS(=O)(=O)c1ccc(S(=O)(=O)CCCCO)cc1,O,0,0,9.6,['9.6'],['chembl25']
4526,NS(=O)(=O)c1ccc(S(=O)(=O)CCCCO)s1,O,0,0,8.67,['8.67'],['chembl25']
4527,NS(=O)(=O)c1ccc(S(=O)(=O)CCCO)c(F)c1,O,0,0,9.02,['9.02'],['chembl25']
4528,NS(=O)(=O)c1ccc(S(=O)(=O)CCCO)cc1,O,0,0,8.98,['8.98'],['chembl25']
4529,NS(=O)(=O)c1ccc(S(=O)(=O)CCCO)s1,O,0,0,8.32,['8.32'],['chembl25']
4530,NS(=O)(=O)c1ccc(S(=O)(=O)CCO)c(F)c1,O,0,0,9.0,['9.0'],['chembl25']
4531,NS(=O)(=O)c1ccc(S(=O)(=O)CCO)cc1,O,0,0,9.38,['9.38'],['chembl25']
4532,NS(=O)(=O)c1ccc(S(=O)(=O)CCO)s1,O,0,0,8.65,['8.65'],['chembl25']
4533,NS(=O)(=O)c1ccc(SCCCCCO)cc1,O,0,0,9.25,['9.25'],['chembl25']
4534,NS(=O)(=O)c1ccc(SCCCCO)c(F)c1,O,0,0,9.82,['9.82'],['chembl25']
4535,NS(=O)(=O)c1ccc(SCCCCO)cc1,O,0,0,10.17,['10.17'],['chembl25']
4536,NS(=O)(=O)c1ccc(SCCCCO)s1,O,0,0,9.5,['9.5'],['chembl25']
4537,NS(=O)(=O)c1ccc(SCCCO)c(Cl)c1,O,0,0,9.45,['9.45'],['chembl25']
4538,NS(=O)(=O)c1ccc(SCCCO)c(F)c1,O,0,0,9.64,['9.64'],['chembl25']
4539,NS(=O)(=O)c1ccc(SCCCO)cc1,O,0,0,10.23,['10.23'],['chembl25']
4540,NS(=O)(=O)c1ccc(SCCCO)s1,O,0,0,9.32,['9.32'],['chembl25']
4541,NS(=O)(=O)c1ccc(SCCO)c(F)c1,O,0,0,9.76,['9.76'],['chembl25']
4542,NS(=O)(=O)c1ccc(SCCO)cc1,O,0,0,9.27,['9.27'],['chembl25']
4543,NS(=O)(=O)c1ccc(SCCO)s1,O,0,0,9.46,['9.46'],['chembl25']
4544,NS(=O)(=O)c1cccc(C(F)(F)F)c1,O,0,0,8.98,['8.98'],['datawarrior']
4545,NS(=O)(=O)c1cccc(Cl)c1,O,0,0,9.04,['9.04'],['datawarrior']
4546,NS(=O)(=O)c1ccccc1,O,0,0,9.7,['9.7'],['datawarrior']
4547,NS(=O)(=O)c1nc2ccccc2s1,O,0,0,7.8,['7.8'],['datawarrior']
4548,NS(=O)(=O)c1nccs1,O,0,0,8.25,['8.25'],['datawarrior']
4549,NS(=O)(=O)c1nn2c(=O)n(CCCl)c(=O)nc2s1,O,0,0,7.1,['7.1'],['chembl25']
4550,NS(=O)(=O)c1nn2cc(-c3ccccc3)[nH+]c2s1,O,0,0,7.12,['7.12'],['chembl25']
4551,NS(=O)(=O)c1nnc(Nc2ccccc2)s1,O,0,0,9.405,['9.405'],['datawarrior']
4552,Nc1[nH+]cc2n1CC(Cc1cccc3c1OCO3)CC2,O,0,0,9.2,['9.2'],['chembl25']
4553,Nc1[nH]c(=O)[n+]([C@@H]2C[C@@H](O)[C@H](CO)O2)cc1CO,O,0,0,3.55,['3.55'],['datawarrior']
4554,Nc1[nH]c(=S)[nH]c(=O)c1C1=CCCCC1,O,0,0,7.11,['7.11'],['datawarrior']
4555,Nc1[nH]cnc(=S)c1N,O,0,0,2.21,['2.21'],['datawarrior']
4556,Nc1c(CC(=O)[O-])cccc1C(=O)c1ccc(Br)cc1,O,0,0,4.3,['4.3'],['chembl25']
4557,Nc1c2c([nH+]c3ccccc13)CCCC2,O,0,0,9.91,['9.91'],['chembl25']
4558,Nc1c2c(ncn2Cc2ccccc2)nc[n+]1[O-],O,0,0,2.4,['2.4'],['datawarrior']
4559,Nc1c2ccccc2[nH+]c2c(N)cccc12,O,0,0,9.3,['9.3'],['datawarrior']
4560,Nc1c2ccccc2[nH+]c2ccccc12,O,0,0,9.795,['9.795'],"['datawarrior', 'chembl25']"
4561,Nc1cc(-c2ccccc2)[nH+]c2ccccc12,O,0,0,8.2,['8.2'],['datawarrior']
4562,Nc1cc(-c2nc(N)n[nH]2)ccn1,O,0,0,4.245,['4.245'],['chembl25']
4563,Nc1cc(/C=C/c2c[nH]c3ccccc23)[nH+]c2ccccc12,O,0,0,9.5,['9.5'],['chembl25']
4564,Nc1cc(/C=C/c2ccccc2)[nH+]c(/C=C/c2ccccc2)c1,O,0,0,8.6,['8.6'],['datawarrior']
4565,Nc1cc(/C=C/c2ccccc2)[nH+]c2ccccc12,O,0,0,9.3,['9.3'],['datawarrior']
4566,Nc1cc(Br)cc(Br)c1,O,0,0,2.49,['2.49'],['datawarrior']
4567,Nc1cc(CO)[nH+]c(N2CCc3ccccc3C2)c1,O,0,0,8.1,['8.1'],['chembl25']
4568,Nc1cc(N)c2ccccc2[nH+]1,O,0,0,9.45,['9.45'],['datawarrior']
4569,Nc1cc(N2CCOCC2)nc(N)n1,O,0,0,6.73,['6.73'],['datawarrior']
4570,Nc1cc(N2CCc3ccccc3C2)[nH+]c2c1CCC2,O,0,0,9.4,['9.4'],['chembl25']
4571,Nc1cc(NCc2ccccc2)nc(N)n1,O,0,0,6.97,['6.97'],['chembl25']
4572,Nc1cc(O)n(CCCC[C@H]([NH3+])C(=O)[O-])c1O,O,0,0,7.75,['7.75'],['datawarrior']
4573,Nc1cc(S(N)(=O)=O)ccc1S(=O)(=O)CCCO,O,0,0,9.15,['9.15'],['chembl25']
4574,Nc1cc(S(N)(=O)=O)ccc1S(=O)(=O)CCO,O,0,0,9.5,['9.5'],['chembl25']
4575,Nc1cc2c(cc1Br)CCCC2,O,0,0,3.05,['3.05'],['datawarrior']
4576,Nc1cc2ccccc2cn1,O,0,0,5.05,['5.05'],['datawarrior']
4577,Nc1cc2ccccc2nn1,O,0,0,3.66,['3.66'],['datawarrior']
4578,Nc1cc[nH+]c(-c2cc(Cl)ccn2)c1,O,0,0,7.4,['7.4'],['datawarrior']
4579,Nc1cc[nH+]c(-c2cccc(Cl)n2)c1,O,0,0,7.7,['7.7'],['datawarrior']
4580,Nc1cc[nH+]c(-c2ccccn2)c1,O,0,0,8.1,['8.1'],['datawarrior']
4581,Nc1cc[nH+]c(N2CCc3ccccc3C2)c1,O,0,0,8.5,['8.5'],['chembl25']
4582,Nc1cc[nH+]c2cc(Cl)ccc12,O,0,0,8.22,['8.22'],['datawarrior']
4583,Nc1cc[nH+]cc1,O,0,0,9.145,['9.145'],"['datawarrior', 'chembl25']"
4584,Nc1cc[nH+]cc1Br,O,0,0,7.15,['7.15'],['datawarrior']
4585,Nc1cc[nH+]cc1F,O,0,0,4.77,['4.77'],['datawarrior']
4586,Nc1cc[nH+]cc1N,O,0,0,9.06,['9.06'],['datawarrior']
4587,Nc1ccc(-c2ccccc2)cc1,O,0,0,4.38,['4.38'],['datawarrior']
4588,Nc1ccc(-c2cnc(-c3ccc(Br)cc3)o2)cc1,O,0,0,3.51,['3.51'],['datawarrior']
4589,Nc1ccc(-c2cnc(-c3ccc(Cl)cc3)o2)cc1,O,0,0,3.52,['3.52'],['datawarrior']
4590,Nc1ccc(-c2cnc(-c3ccccc3)o2)cc1,O,0,0,3.68,['3.68'],['datawarrior']
4591,Nc1ccc(-c2nc3ccccc3s2)cc1,O,0,0,3.0,['3.0'],['datawarrior']
4592,Nc1ccc(-c2ncc(-c3ccc(Br)cc3)o2)cc1,O,0,0,2.8,['2.8'],['datawarrior']
4593,Nc1ccc(-c2ncc(-c3ccc(Cl)cc3)o2)cc1,O,0,0,2.87,['2.87'],['datawarrior']
4594,Nc1ccc(-c2ncc(-c3ccccc3)o2)cc1,O,0,0,3.01,['3.01'],['datawarrior']
4595,Nc1ccc(/N=N/c2ccccc2)cc1,O,0,0,2.82,['2.82'],['datawarrior']
4596,Nc1ccc(Br)cc1,O,0,0,3.79,['3.79'],['datawarrior']
4597,Nc1ccc(Br)cc1Br,O,0,0,2.3,['2.3'],['datawarrior']
4598,Nc1ccc(C(=O)[O-])c(Cl)c1,O,0,0,3.905,['3.905'],['chembl25']
4599,Nc1ccc(C(=O)[O-])c(F)c1,O,0,0,4.13,['4.13'],['chembl25']
4600,Nc1ccc(C(=O)[O-])cc1Br,O,0,0,4.275,['4.275'],['chembl25']
4601,Nc1ccc(C(=O)[O-])cc1C(=O)c1ccccc1,O,0,0,4.34,['4.34'],['chembl25']
4602,Nc1ccc(C(=O)[O-])cc1Cl,O,0,0,4.35,['4.35'],['chembl25']
4603,Nc1ccc(C(=O)[O-])cc1F,O,0,0,4.35,['4.35'],['chembl25']
4604,Nc1ccc(C(=O)[O-])cc1I,O,0,0,4.34,['4.34'],['chembl25']
4605,Nc1ccc(C(=O)[O-])cn1,O,0,0,6.2,['6.2'],['chembl25']
4606,Nc1ccc(C(=O)c2ccccc2)cc1,O,0,0,2.24,['2.24'],['chembl25']
4607,Nc1ccc(C(F)(F)F)cc1,O,0,0,2.57,['2.57'],['chembl25']
4608,Nc1ccc(Cl)c2ccccc12,O,0,0,3.4,['3.4'],['datawarrior']
4609,Nc1ccc(Cl)cc1,O,0,0,3.975,['3.975'],"['datawarrior', 'chembl25']"
4610,Nc1ccc(Cl)cc1N,O,0,0,4.3,['4.3'],['datawarrior']
4611,Nc1ccc(Cl)cn1,O,0,0,4.83,['4.83'],['datawarrior']
4612,Nc1ccc(F)cc1,O,0,0,4.645,['4.645'],"['datawarrior', 'chembl25']"
4613,Nc1ccc(I)cc1,O,0,0,3.79,['3.79'],['datawarrior']
4614,Nc1ccc(N2CCc3ccccc3C2)nc1,O,0,0,5.8,['5.8'],['chembl25']
4615,Nc1ccc(S(=O)(=O)Nc2ncco2)cc1,O,0,0,6.5,['6.5'],['datawarrior']
4616,Nc1ccc(S(=O)(=O)Nc2nccs2)c(Cl)c1,O,0,0,6.95,['6.95'],['datawarrior']
4617,Nc1ccc(S(=O)(=O)Nc2nccs2)cc1/N=N/c1ccccc1,O,0,0,5.85,['5.85'],['datawarrior']
4618,Nc1ccc(S(=O)(=O)Nc2nncs2)cc1,O,0,0,4.77,['4.77'],['datawarrior']
4619,Nc1ccc(S(=O)(=O)c2ccc(C(=O)[O-])cc2)cc1,O,0,0,3.6,['3.6'],['chembl25']
4620,Nc1ccc2[nH]c(=O)[nH]c2c1,O,0,0,5.0,['5.0'],['datawarrior']