,Solute SMILES,Solvent SMILES,Solute CAS,Solute IUPAC,pKa (avg),pKa (all),Source
562,CC(C)(C)c1ccccn1,O,0,0,5.72,['5.72'],['datawarrior']
563,CC(C)(C)c1cccnc1,O,0,0,5.82,['5.82'],['datawarrior']
564,CC(C)(C)c1ccnc(C(C)(C)C)c1,O,0,0,6.7,['6.7'],['datawarrior']
565,CC(C)(C)c1ccncc1,O,0,0,5.95,['5.95'],['datawarrior']
566,CC(C)(C)c1cn2nc(S(N)(=O)=O)sc2[nH+]1,O,0,0,6.94,['6.94'],['chembl25']
567,CC(C)(C)n1ccnc1,O,0,0,7.35,['7.35'],['datawarrior']
568,CC(C)(CCC(CO[N+](=O)[O-])O[N+](=O)[O-])C(=O)Oc1ccccc1C(=O)[O-],O,0,0,3.69,['3.69'],['chembl25']
569,CC(C)(CO[N+](=O)[O-])C(=O)Oc1ccccc1C(=O)[O-],O,0,0,3.69,['3.69'],['chembl25']
570,CC(C)(Cl)C(=O)[O-],O,0,0,2.97,['2.97'],['datawarrior']
571,CC(C)(N)C#N,O,0,0,5.3,['5.3'],['datawarrior']
572,CC(C)(O)C(=O)[O-],O,0,0,4.04,['4.04'],['datawarrior']
573,CC(C)(O)C(C(=O)[O-])c1ccc(-c2ccccc2)cc1,O,0,0,3.76,['3.76'],['datawarrior']
574,CC(C)(O)C(C(=O)[O-])c1ccc(C2CCCCC2)cc1,O,0,0,3.76,['3.76'],['datawarrior']
575,CC(C)(O)CCS(=O)(=O)c1ccc(S(N)(=O)=O)cc1,O,0,0,9.28,['9.28'],['chembl25']
576,CC(C)(O)CCSc1ccc(S(N)(=O)=O)cc1,O,0,0,10.0,['10.0'],['chembl25']
577,CC(C)(O)c1ccn2ccnc2c1,O,0,0,7.2,['7.2'],['chembl25']
578,CC(C)(O)c1ccn2ccnc2c1F,O,0,0,5.4,['5.4'],['chembl25']
579,CC(C)(Oc1cc2c(c(Cl)c1Cl)C(=O)C(C)(C1CCCC1)C2)C(=O)[O-],O,0,0,3.7,['3.7'],['chembl25']
580,CC(C)([NH3+])C(=O)N[C@H](Cc1c[nH]c2ccccc12)C(=O)N1CCC2(CCc3ccccc32)CC1,O,0,0,7.9,['7.9'],['chembl25']
581,CC(C)([NH3+])CNC(=O)CC1CCC2(CC1)COC1(OO2)C2CC3CC(C2)CC1C3,O,0,0,9.05,['9.05'],['chembl25']
582,CC(C)([NH3+])CNC(=O)CC1CCC2(CC1)OOC1(OO2)C2CC3CC(C2)CC1C3,O,0,0,9.05,['9.05'],['chembl25']
583,CC(C)([NH3+])CNC(=O)C[C@H]1CC[C@@]2(CC1)C[C@@]1(OO2)C2CC3CC(C2)CC1C3,O,0,0,9.05,['9.05'],['chembl25']
584,CC(C)([NH3+])CNC(=O)C[C@H]1CC[C@]2(CC1)OO[C@]1(O2)C2CC3CC(C2)CC1C3,O,0,0,9.05,['9.05'],['chembl25']
585,CC(C)([NH3+])CO,O,0,0,9.74,['9.74'],['datawarrior']
586,CC(C)([NH3+])Cc1ccccc1,O,0,0,10.13,['10.13'],['datawarrior']
587,CC(C)([NH3+])c1ccccc1,O,0,0,10.38,['10.38'],['datawarrior']
588,CC(C)/C=C/C(=O)[O-],O,0,0,4.7,['4.7'],['datawarrior']
589,CC(C)=C(C#N)C(=O)[O-],O,0,0,3.04,['3.04'],['datawarrior']
590,CC(C)=C(C(N)=O)C(=O)[O-],O,0,0,3.95,['3.95'],['datawarrior']
591,CC(C)=CC(=O)[O-],O,0,0,5.12,['5.12'],['datawarrior']
592,CC(C)=CCC(=O)[O-],O,0,0,4.6,['4.6'],['datawarrior']
593,CC(C)=CCC1C(=O)C(CC=C(C)C)(CC=C(C)C)C(=O)C(C(=O)CC(C)C)=C1[O-],O,0,0,6.18,['6.18'],['datawarrior']
594,CC(C)=CCN(C1=[NH+]CCN1)c1c(Br)cccc1Br,O,0,0,10.75,['10.75'],['chembl25']
595,CC(C)=CC[C@@H]1C([O-])=C(C(=O)CC(C)C)C(=O)[C@H]1O,O,0,0,2.35,['2.35'],['datawarrior']
596,CC(C)C(=O)C(C)(C)C[NH+](C)C,O,0,0,9.3,['9.3'],['datawarrior']
597,CC(C)C(=O)C=C(O)C(C)C,O,0,0,9.86,['9.86'],['datawarrior']
598,CC(C)C(=O)C=CO,O,0,0,6.68,['6.68'],['datawarrior']
599,CC(C)C(=O)N(Cc1cccc(Cl)c1Cl)[C@H]1CC[NH2+]C1,O,0,0,9.4,['9.4'],['chembl25']
600,CC(C)C(=O)N(Cc1ccccc1-c1ccccc1)[C@H]1CC[NH2+]C1,O,0,0,9.4,['9.4'],['chembl25']
601,CC(C)C(=O)[O-],O,0,0,4.76,['4.76'],['datawarrior']
602,CC(C)C(Br)C(=O)[O-],O,0,0,2.82,['2.82'],['datawarrior']
603,CC(C)C(C(C)C)[NH+](C)C,O,0,0,10.06,['10.06'],['datawarrior']
604,CC(C)C(Nc1ccccc1)C(=O)[O-],O,0,0,4.4,['4.4'],['datawarrior']
605,CC(C)C(O)C(C(=O)[O-])c1ccc(-c2ccccc2)cc1,O,0,0,4.13,['4.13'],['datawarrior']
606,CC(C)C(O[C@H]1O[C@@H](C(=O)[O-])[C@H](O)[C@@H](O)[C@@H]1O)C(C)C,O,0,0,3.89,['3.89'],['datawarrior']
607,CC(C)C([NH3+])C(C)C,O,0,0,10.4,['10.4'],['datawarrior']
608,CC(C)C([NH3+])C(N)=O,O,0,0,8.0,['8.0'],['datawarrior']
609,CC(C)C12CCC(=O)C=C1c1c(cc(OCC(=O)[O-])c(Cl)c1Cl)C2,O,0,0,3.83,['3.83'],['chembl25']
610,CC(C)C1=C([O-])c2ccccc2C1=O,O,0,0,7.4,['7.4'],['datawarrior']
611,CC(C)C1=CC2=CC[C@@H]3[C@@](C)(C(=O)[O-])CCC[C@@]3(C)[C@@H]2CC1,O,0,0,6.4,['6.4'],['datawarrior']
612,CC(C)C1=NC(c2ccccc2)(c2cccc(-c3cncnc3)c2)[NH+]=C1N,O,0,0,5.2,['5.2'],['chembl25']
613,CC(C)C1CC(CC(=O)[O-])[NH2+]C1C(=O)[O-],O,0,0,3.05,['3.05'],['datawarrior']
614,CC(C)C1NC(=S)NC1=O,O,0,0,8.7,['8.7'],['datawarrior']
615,CC(C)CC(=O)[O-],O,0,0,4.79,['4.79'],['datawarrior']
616,CC(C)CC(O)=CC(=O)C(F)(F)F,O,0,0,6.52,['6.52'],['datawarrior']
617,CC(C)CC([NH3+])C(N)=O,O,0,0,8.0,['8.0'],['datawarrior']
618,CC(C)CC1(C)[NH+]=C(N)N(Cc2cccc(Cl)c2)C1=O,O,0,0,7.2,['7.2'],['chembl25']
619,CC(C)CC1CC([O-])=C(C(=O)Nc2ccc(C3CCCCC3)cc2)C(=O)N1,O,0,0,6.5,['6.5'],['chembl25']
620,CC(C)CCC(=O)[O-],O,0,0,4.84,['4.84'],['datawarrior']
621,CC(C)CCC1=C([O-])C(O)C(CCC(C)C)(CCC(C)C)C1=O,O,0,0,6.3,['6.3'],['datawarrior']
622,CC(C)CCC1=C([O-])c2ccccc2C(=O)C1=O,O,0,0,5.13,['5.13'],['datawarrior']
623,CC(C)CCCC(C)[NH3+],O,0,0,10.28,['10.28'],['datawarrior']
624,CC(C)CCC[NH+](C)CCCNC(=O)CN=O,O,0,0,9.435,['9.435'],['datawarrior']
625,CC(C)CCN(C1=[NH+]CCN1)c1c(Br)cccc1Br,O,0,0,10.9,['10.9'],['chembl25']
626,CC(C)CCOc1ccc2c(c1)[C@H]1OCCC[C@H]1[C@@H](C1CCOCC1)N2,O,0,0,3.8,['3.8'],['chembl25']
627,CC(C)CCOc1ccccc1/C=C/C(=O)[O-],O,0,0,4.85,['4.85'],['datawarrior']
628,CC(C)CCOc1ccccc1/C=C\C(=O)[O-],O,0,0,4.38,['4.38'],['datawarrior']
629,CC(C)CCSC(=N)c1ccccc1,O,0,0,8.43,['8.43'],['datawarrior']
630,CC(C)CC[NH2+]CCC(C)C,O,0,0,10.9,['10.9'],['datawarrior']
631,CC(C)CC[NH3+],O,0,0,10.93,['10.93'],['datawarrior']
632,CC(C)CN(C(=O)c1cccc(Cl)c1Cl)[C@H]1CC[NH2+]C1,O,0,0,10.0,['10.0'],['chembl25']
633,CC(C)CN(C)c1ccccc1,O,0,0,5.2,['5.2'],['datawarrior']
634,CC(C)CN(C1=[NH+]CCN1)c1c(Br)cccc1Br,O,0,0,11.02,['11.02'],['chembl25']
635,CC(C)CN(CC(C)C)C(=S)S,O,0,0,3.4,['3.4'],['datawarrior']
636,CC(C)CNC(=O)CNC(=O)c1[nH]ccc(=O)c1[O-],O,0,0,6.2,['6.2'],['chembl25']
637,CC(C)CNC(=O)[C@H](C)NC(=O)c1[nH]ccc(=O)c1[O-],O,0,0,6.0,['6.0'],['chembl25']
638,CC(C)CNC(=O)[C@H](Cc1ccccc1)NC(=O)c1[nH]ccc(=O)c1[O-],O,0,0,6.0,['6.0'],['chembl25']
639,CC(C)CNC(=O)[C@H]1C[C@@](F)(c2ccc(C[NH+]3CCCC3)c(F)c2)C1,O,0,0,9.2,['9.2'],['chembl25']
640,CC(C)CNC(=O)c1cnc(Nc2cccc(Cl)c2)cc1C(C)C,O,0,0,6.02,['6.02'],['chembl25']
641,CC(C)CNc1ccccc1,O,0,0,4.84,['4.84'],['datawarrior']
642,CC(C)COCC(CN(Cc1ccccc1)c1ccccc1)[NH+]1CCCC1,O,0,0,9.3,['9.3'],['chembl25']
643,CC(C)COCC(O)C[NH2+]C(C)(C)C,O,0,0,9.73,['9.73'],['chembl25']
644,CC(C)COc1ccc(C(=O)[O-])cc1,O,0,0,4.48,['4.48'],['datawarrior']
645,CC(C)COc1noc2c1C[NH2+]CC2,O,0,0,7.7,['7.7'],['chembl25']
646,CC(C)CS(=O)[O-],O,0,0,2.75,['2.75'],['datawarrior']
647,CC(C)CSC(=N)c1ccccc1,O,0,0,8.22,['8.22'],['datawarrior']
648,CC(C)CSCC[NH3+],O,0,0,8.73,['8.73'],['datawarrior']
649,CC(C)C[C@@H](C(=O)NCC#N)c1cccc(-c2ccc(N3CC[NH2+]CC3)cc2)c1,O,0,0,8.77,['8.77'],['chembl25']
650,CC(C)C[C@H](O)[C@H](O)[C@@H]([NH3+])CC1CCCCC1,O,0,0,9.3,['9.3'],['chembl25']
651,CC(C)C[C@H]([NH3+])C(=O)NCCCS(=O)(=O)Oc1ccc(C(F)(F)F)cc1,O,0,0,8.9,['8.9'],['chembl25']
652,CC(C)C[C@H]([NH3+])C(=O)NCCCS(=O)(=O)Oc1ccc(Cl)cc1,O,0,0,9.6,['9.6'],['chembl25']
653,CC(C)C[C@H]([NH3+])C(N)=O,O,0,0,7.84,['7.84'],['datawarrior']
654,CC(C)C[NH+](C)C,O,0,0,9.91,['9.91'],['datawarrior']
655,CC(C)C[NH+](CC(C)O)CC(C)O,O,0,0,8.8,['8.8'],['datawarrior']
656,CC(C)C[NH+]1CCC(Oc2ccc3cc(C(=O)N4CCC(C)CC4)ccc3c2)CC1,O,0,0,9.8,['9.8'],['chembl25']
657,CC(C)C[NH2+]C(C)C,O,0,0,10.55,['10.55'],['datawarrior']
658,CC(C)C[NH2+]CC(C)C,O,0,0,10.59,['10.59'],['datawarrior']
659,CC(C)C[NH2+][C@H](c1ccccc1)[C@H](O)c1ccccc1,O,0,0,11.34,['11.34'],['datawarrior']
660,CC(C)C[NH3+],O,0,0,10.36,['10.36'],['datawarrior']
661,CC(C)Cc1ccc(C(C)C(=O)[O-])cc1,O,0,0,5.205714,['5.205714'],"['datawarrior', 'chembl25']"
662,CC(C)Cc1ccc(O)cc1,O,0,0,10.2,['10.2'],['chembl25']
663,CC(C)Cc1ccc([C@H](C)C(=O)[O-])cc1,O,0,0,5.2,['5.2'],['chembl25']
664,CC(C)Cc1ccccc1O,O,0,0,10.5,['10.5'],['chembl25']
665,CC(C)N(/C=[NH+]\c1ccn(C2CC(F)C(CO)O2)c(=O)n1)C(C)C,O,0,0,5.13,['5.13'],['chembl25']
666,CC(C)N(/C=[NH+]\c1ccn(C2CCC(CO)O2)c(=O)n1)C(C)C,O,0,0,5.28,['5.28'],['chembl25']
667,CC(C)N(C1=[NH+]CCN1)c1c(Br)cccc1Br,O,0,0,11.2,['11.2'],['chembl25']
668,CC(C)N(Cc1cnc[nH]1)c1ccc(Cl)cc1,O,0,0,3.5,['3.5'],['chembl25']
669,CC(C)N(c1ccc(Oc2ccccc2C(F)(F)F)cc1C(=O)[O-])C(=O)[C@H]1CC[C@H](C)CC1,O,0,0,5.5,['5.5'],['chembl25']
670,CC(C)N(c1ccccc1)C(C)C,O,0,0,6.19,['6.19'],['datawarrior']
671,CC(C)N=C1NS(=O)(=O)c2cc(Cl)ccc2S1,O,0,0,9.76,['9.76'],['chembl25']
672,CC(C)N=C1Nc2c(Cl)cccc2S(=O)(=O)N1,O,0,0,9.11,['9.11'],['chembl25']
673,CC(C)N=C1Nc2cc(Cl)ccc2S(=O)(=O)N1,O,0,0,9.35,['9.35'],['chembl25']
674,CC(C)N=C1Nc2ccc(Br)cc2S(=O)(=O)N1,O,0,0,9.41,['9.41'],['chembl25']
675,CC(C)N=C1Nc2ccc(Cl)cc2S(=O)(=O)N1,O,0,0,9.51,['9.51'],['chembl25']
676,CC(C)N=C1Nc2ccc(F)cc2S(=O)(=O)N1,O,0,0,9.63,['9.63'],['chembl25']
677,CC(C)N=C1Nc2ccc(I)cc2S(=O)(=O)N1,O,0,0,9.28,['9.28'],['chembl25']
678,CC(C)N=NC1CC[NH+](C)CC1,O,0,0,8.9,['8.9'],['datawarrior']
679,CC(C)NC(=O)NCCc1ccc(OCC(O)C[NH2+]C(C)C)cc1,O,0,0,9.18,['9.18'],['chembl25']
680,CC(C)NC(=O)c1ccc(-c2ccc(-c3ccccc3)n2Cc2cccc(N)n2)cc1,O,0,0,6.86,['6.86'],['chembl25']
681,CC(C)NC(=S)S,O,0,0,3.1,['3.1'],['datawarrior']
682,CC(C)NCCC#N,O,0,0,8.0,['8.0'],['datawarrior']
683,CC(C)Nc1ccccc1,O,0,0,5.67,['5.67'],['datawarrior']
684,CC(C)Nc1ncc(-c2nc(-c3ccc4c(c3)CC[NH+](C(CO)CO)CC4)no2)cc1C#N,O,0,0,8.1,['8.1'],['chembl25']
685,CC(C)Nc1ncnc2c1cnn2C,O,0,0,4.22,['4.22'],['datawarrior']
686,CC(C)OCC(O)C[NH2+]C(C)(C)C,O,0,0,9.9,['9.9'],['chembl25']
687,CC(C)Oc1ccc(-c2nc(-c3ccc4c(c3)CC[NH+](C(CO)CO)C4)no2)cc1C#N,O,0,0,7.28,['7.28'],['chembl25']
688,CC(C)Oc1ccc(-c2nc(-c3ccc4c(c3)CC[NH+](C(CO)CO)CC4)no2)cc1C#N,O,0,0,7.805,['7.805'],['chembl25']
689,CC(C)Oc1ccc(-c2nc(-c3cccc4c3CC[NH+](C(CO)CO)C4)no2)cc1C#N,O,0,0,7.3,['7.3'],['chembl25']
690,CC(C)Oc1ccc(-c2nc(-c3cccc4c3OCC[NH+](C(CO)CO)C4)no2)cc1C#N,O,0,0,6.03,['6.03'],['chembl25']
691,CC(C)Oc1ccc(C(=O)[O-])cc1,O,0,0,4.57,['4.57'],['datawarrior']
692,CC(C)Oc1ccc(C(=O)c2ccc3n2CCC3C(=O)[O-])cc1,O,0,0,3.43,['3.43'],['chembl25']
693,CC(C)Oc1cccc(C(=O)[O-])c1,O,0,0,4.15,['4.15'],['datawarrior']
694,CC(C)Oc1cccc2c1NC(=[NH+]CC(F)F)NC2C,O,0,0,10.2,['10.2'],['chembl25']
695,CC(C)Oc1ccccc1C(=O)[O-],O,0,0,4.24,['4.24'],['datawarrior']
696,CC(C)Oc1ncc(-c2nc(-c3ccc4c(c3)CC[NH2+]CC4)no2)cc1C#N,O,0,0,9.69,['9.69'],['chembl25']
697,CC(C)Oc1noc2c1C[NH2+]CC2,O,0,0,7.5,['7.5'],['chembl25']
698,CC(C)S(=O)(=O)n1c(N)nc2ccc(/C(=C/C(N)=O)c3cc(F)ccc3F)cc21,O,0,0,3.4,['3.4'],['datawarrior']
699,CC(C)S(=O)(=O)n1c(N)nc2ccc(/C(=C/C(N)=O)c3cccc(F)c3)cc21,O,0,0,3.41,['3.41'],['datawarrior']
700,CC(C)S(=O)[O-],O,0,0,2.3,['2.3'],['datawarrior']
701,CC(C)SC(=N)c1ccccc1,O,0,0,8.04,['8.04'],['datawarrior']
702,CC(C)SC(C)C(=O)[O-],O,0,0,3.78,['3.78'],['datawarrior']
703,CC(C)SCC(=O)[O-],O,0,0,3.72,['3.72'],['datawarrior']
704,CC(C)SCC[NH3+],O,0,0,9.23,['9.23'],['datawarrior']
705,CC(C)[C@@H]1C(=O)N(S(C)(=O)=O)[C@@H]2CN(C(=O)/C=C/C[NH+]3CCCCC3)C[C@@H]12,O,0,0,8.44,['8.44'],['chembl25']
706,CC(C)[C@@H]1CC[C@@H](C)C[C@@H]1[NH3+],O,0,0,10.52,['10.52'],['datawarrior']
707,CC(C)[C@@]12C[NH2+][C@@H](C(=O)[O-])[C@@H]1CC(=O)O2,O,0,0,7.8,['7.8'],['datawarrior']
708,CC(C)[C@H](C(=O)[O-])N1C[C@H](NC(=O)Cc2ccccc2)C1=O,O,0,0,3.48,['3.48'],['datawarrior']
709,CC(C)[C@H]1CC[C@H](C(=O)N[C@H](Cc2ccccc2)C(=O)[O-])CC1,O,0,0,3.1,['3.1'],['chembl25']
710,CC(C)[C@H]1CC[C@H](C)C[C@@H]1[NH3+],O,0,0,10.63,['10.63'],['datawarrior']
711,CC(C)[NH+](C(C)C)C(C)C,O,0,0,11.86,['11.86'],['datawarrior']
712,CC(C)[NH+](C)C,O,0,0,10.3,['10.3'],['datawarrior']
713,CC(C)[NH+](CC1CO1)CC1CO1,O,0,0,7.07,['7.07'],['datawarrior']
714,CC(C)[NH+](CCCl)CCCl,O,0,0,7.0,['7.0'],['datawarrior']
715,CC(C)[NH+](CCNC(=O)[C@H]1C[C@@H]1c1ccccc1)C(C)C,O,0,0,9.7,['9.7'],['chembl25']
716,CC(C)[NH+](CCO)C(C)C,O,0,0,10.08,['10.08'],['datawarrior']
717,CC(C)[NH+](CCc1ccccc1)CCc1ccccc1,O,0,0,10.02,['10.02'],['datawarrior']
718,CC(C)[NH+](Cc1no[n+]([O-])c1C#N)C(C)C,O,0,0,5.35,['5.35'],['chembl25']
719,CC(C)[NH+]1C2CCCC21,O,0,0,8.31,['8.31'],['datawarrior']
720,CC(C)[NH+]1CCC(C(=O)Nc2cccc(OCc3ccc(F)cc3)c2)CC1,O,0,0,9.4,['9.4'],['chembl25']
721,CC(C)[NH+]1CCC(N(C(=O)Cc2ccccc2)c2ccc(Cl)cc2)CC1,O,0,0,8.7,['8.7'],['chembl25']
722,CC(C)[NH+]1CCC(Oc2cc3[nH]c(C(=O)N4CCOCC4)cc3cc2F)CC1,O,0,0,9.5,['9.5'],['chembl25']
723,CC(C)[NH+]1CCC(Oc2ccc(C3(C(N)=O)CCOCC3)cc2)CC1,O,0,0,9.78,['9.78'],['chembl25']
724,CC(C)[NH+]1CCC(Oc2ccc3[nH]c(C(=O)N4CCC(F)(F)CC4)cc3c2)CC1,O,0,0,9.7,['9.7'],['chembl25']
725,CC(C)[NH+]1CCC(Oc2ccc3[nH]c(C(=O)N4CCC(O)C4)cc3c2)CC1,O,0,0,9.8,['9.8'],['chembl25']
726,CC(C)[NH+]1CCC(Oc2ccc3[nH]c(C(=O)N4CCCC(F)(F)C4)cc3c2)CC1,O,0,0,10.0,['10.0'],['chembl25']
727,CC(C)[NH+]1CCC(Oc2ccc3[nH]c(C(=O)N4CCCCCC4)cc3c2)CC1,O,0,0,9.7,['9.7'],['chembl25']
728,CC(C)[NH+]1CCC(Oc2ccc3[nH]c(C(=O)N4CCOCC4)cc3c2)CC1,O,0,0,10.0,['10.0'],['chembl25']
729,CC(C)[NH+]1CCC(Oc2ccc3c(c2)cc(C(=O)N2CCC(F)(F)CC2)n3CC#N)CC1,O,0,0,9.8,['9.8'],['chembl25']
730,CC(C)[NH+]1CCC(Oc2ccc3c(c2)cc(C(=O)N2CCC(F)(F)CC2)n3CC(F)(F)F)CC1,O,0,0,9.7,['9.7'],['chembl25']
731,CC(C)[NH+]1CCC(Oc2ccc3c(c2)cc(C(=O)N2CCC(F)(F)CC2)n3S(C)(=O)=O)CC1,O,0,0,9.6,['9.6'],['chembl25']
732,CC(C)[NH+]1CCC(Oc2ccc3c(c2)cc(C(=O)N2CCOCC2)n3CC(F)(F)F)CC1,O,0,0,9.7,['9.7'],['chembl25']
733,CC(C)[NH+]1CCC(Oc2ccc3c(c2)cc(C(=O)N2CCS(=O)(=O)CC2)n3CC(F)(F)F)CC1,O,0,0,9.6,['9.6'],['chembl25']
734,CC(C)[NH+]1CCC(Oc2ccc3cc(C(=O)N4CCC(CO)CC4)ccc3c2)CC1,O,0,0,9.6,['9.6'],['chembl25']
735,CC(C)[NH+]1CCC(Oc2ccc3cc(C(=O)N4CCOCC4)[nH]c3c2)CC1,O,0,0,9.7,['9.7'],['chembl25']
736,CC(C)[NH+]1CCC(Oc2ccc3cc(C(=O)N4CCOCC4)ccc3c2)CC1,O,0,0,9.3,['9.3'],['chembl25']
737,CC(C)[NH+]1CCC(Oc2ccc3nc(C(=O)N4CCC4)ccc3c2)CC1,O,0,0,9.5,['9.5'],['chembl25']
738,CC(C)[NH+]1CCC(Oc2ccc3nc(C(=O)N4CCC[C@H]4C#N)ccc3c2)CC1,O,0,0,9.5,['9.5'],['chembl25']
739,CC(C)[NH+]1CCC(Oc2ccc3nc(C(=O)N4CCOCC4)ccc3c2)CC1,O,0,0,9.5,['9.5'],['chembl25']
740,CC(C)[NH+]1CCCC1,O,0,0,11.22,['11.22'],['datawarrior']
741,CC(C)[NH+]1CCCCC1,O,0,0,10.96,['10.96'],['datawarrior']
742,CC(C)[NH+]1[C@H]2CCC(Oc3ccc4nc(C(=O)N5CCOCC5)ccc4c3)C[C@@H]1C2,O,0,0,8.97,['8.97'],['chembl25']
743,CC(C)[NH2+]C(C)C,O,0,0,11.04,['11.04'],['datawarrior']
744,CC(C)[NH2+]CC(O)COc1ccc(CC(N)=O)cc1,O,0,0,9.555,['9.555'],"['datawarrior', 'chembl25']"
745,CC(C)[NH2+]CC(O)COc1ccc(CCOCC2CC2)cc1,O,0,0,9.305,['9.305'],['chembl25']
746,CC(C)[NH2+]CC(O)COc1ccc(COCCOC(C)C)cc1,O,0,0,9.446667,['9.446667'],['chembl25']
747,CC(C)[NH2+]CC(O)COc1cccc2[nH]c3ccccc3c12,O,0,0,9.52,['9.52'],['chembl25']
748,CC(C)[NH2+]CC(O)COc1cccc2[nH]ccc12,O,0,0,9.395,['9.395'],['chembl25']
749,CC(C)[NH2+]CC(O)COc1cccc2ccccc12,O,0,0,9.518824,['9.518824'],"['datawarrior', 'chembl25']"
750,CC(C)[NH2+]CC(O)COc1ccccc1,O,0,0,9.45,['9.45'],['datawarrior']
751,CC(C)[NH2+]CC(O)c1cccc(F)c1,O,0,0,9.48,['9.48'],['datawarrior']
752,CC(C)[NH2+]C[C@H](O)COc1ccc(CC(N)=O)cc1,O,0,0,9.57,['9.57'],['datawarrior']
753,CC(C)[NH2+]C[C@H](O)COc1cccc2ccccc12,O,0,0,9.5,['9.5'],['chembl25']
754,CC(C)[NH2+][C@H](c1ccccc1)[C@H](O)c1ccccc1,O,0,0,11.79,['11.79'],['datawarrior']
755,CC(C)[NH3+],O,0,0,10.64,['10.64'],['datawarrior']
756,CC(C)c1cc(=O)c([O-])ccc1Br,O,0,0,6.53,['6.53'],['datawarrior']
757,CC(C)c1cc(Nc2ccc(C#N)c(Cl)c2)ncc1C(=O)NCC1CCOCC1,O,0,0,6.02,['6.02'],['chembl25']
758,CC(C)c1cc(Nc2ccc(Cl)cc2Cl)ncc1C(=O)NCC1CCOCC1,O,0,0,6.02,['6.02'],['chembl25']
759,CC(C)c1cc(Nc2cccc(Br)c2)ncc1C(=O)NCC1CCOCC1,O,0,0,6.02,['6.02'],['chembl25']
760,CC(C)c1cc(Nc2cccc(C#N)c2)ncc1C(=O)NCC1CCOCC1,O,0,0,6.02,['6.02'],['chembl25']
761,CC(C)c1cc(Nc2cccc(C(F)(F)F)c2F)ncc1C(=O)NCC1CCOCC1,O,0,0,6.02,['6.02'],['chembl25']
762,CC(C)c1cc(Nc2cccc(Cl)c2)ncc1C(=O)NC1CCOCC1,O,0,0,6.02,['6.02'],['chembl25']
763,CC(C)c1cc(Nc2cccc(Cl)c2)ncc1C(=O)NCC(C)(C)C,O,0,0,6.02,['6.02'],['chembl25']
764,CC(C)c1cc(Nc2cccc(Cl)c2)ncc1C(=O)NCC1CCCC1,O,0,0,6.02,['6.02'],['chembl25']
765,CC(C)c1cc(Nc2cccc(Cl)c2)ncc1C(=O)NCC1CCOCC1,O,0,0,6.02,['6.02'],['chembl25']
766,CC(C)c1cc(Nc2cccc(Cl)c2)ncc1C(=O)NCc1ccc(F)cc1,O,0,0,6.02,['6.02'],['chembl25']
767,CC(C)c1ccc(Br)c([O-])c(=O)c1,O,0,0,6.28,['6.28'],['datawarrior']
768,CC(C)c1ccc(C(=O)/C=C/C(=O)[O-])cc1,O,0,0,3.4,['3.4'],['datawarrior']
769,CC(C)c1ccc(C(=O)[O-])cc1,O,0,0,4.31,['4.31'],['datawarrior']
770,CC(C)c1ccc(CCC[NH+](C)C)cc1,O,0,0,10.49,['10.49'],['chembl25']
771,CC(C)c1ccc(O)cc1,O,0,0,10.1,['10.1'],['chembl25']
772,CC(C)c1ccc2c(c1)CC[C@@H]1[C@]2(C)CCC[C@@]1(C)C(=O)[O-],O,0,0,5.7,['5.7'],['datawarrior']
773,CC(C)c1cccc(=O)c([O-])c1Br,O,0,0,6.68,['6.68'],['datawarrior']
774,CC(C)c1cccc(C(=O)[O-])c1,O,0,0,4.27,['4.27'],['datawarrior']
775,CC(C)c1cccc(C(C)C)c1NC1=[NH+]CCN1,O,0,0,10.65,['10.65'],['chembl25']
776,CC(C)c1cccc2ccc(O)cc12,O,0,0,9.52,['9.52'],['datawarrior']
777,CC(C)c1ccccc1C(=O)[O-],O,0,0,3.64,['3.64'],['datawarrior']
778,CC(C)c1ccccc1N,O,0,0,4.42,['4.42'],['datawarrior']
779,CC(C)c1ccccc1Nc1c2ccccc2nc2ccccc12,O,0,0,7.64,['7.64'],['chembl25']
780,CC(C)c1ccccc1O,O,0,0,10.4,['10.4'],['chembl25']
781,CC(C)c1ccccn1,O,0,0,5.83,['5.83'],['datawarrior']
782,CC(C)c1cccnc1,O,0,0,5.72,['5.72'],['datawarrior']
783,CC(C)c1ccncc1,O,0,0,6.02,['6.02'],['datawarrior']
784,CC(C)c1csc(C(=O)[O-])c1,O,0,0,3.64,['3.64'],['datawarrior']
785,CC(C)c1nc2ccccc2[nH]1,O,0,0,6.23,['6.23'],['datawarrior']
786,CC(C)c1nn[n-]n1,O,0,0,5.55,['5.55'],['datawarrior']
787,CC(C)c1nnc2ccc(-c3ocnc3-c3ccc(F)cc3)cn12,O,0,0,2.86,['2.86'],['chembl25']
788,CC(C)n1c(/C=C/C(O)CC(O)CC(=O)[O-])c(-c2ccc(F)cc2)c2ccccc21,O,0,0,4.405,['4.405'],['chembl25']
789,CC(C)n1c(/C=C/[C@@H](O)C[C@@H](O)CC(=O)[O-])c(-c2ccc(F)cc2)c2ccccc21,O,0,0,4.31,['4.31'],['chembl25']
790,CC(C)n1c(C(=O)N2CCC(F)(F)CC2)cc2cc(OC3CC[NH+](C(C)C)CC3)ccc21,O,0,0,9.9,['9.9'],['chembl25']
791,CC(C)n1c(N)nc2ccc(/C(=C\C(N)=O)c3cccc(F)c3F)cc21,O,0,0,6.7,['6.7'],['datawarrior']
792,CC(C)n1cnc2ccccc21,O,0,0,5.74,['5.74'],['datawarrior']
793,CC(C1CC1C(=O)[O-])C1CC[C@H]2[C@@H]3[C@@H](O)CC4C[C@H](O)CCC4(C)[C@H]3CCC12C,O,0,0,5.01,['5.01'],['chembl25']
794,CC(C1CC[C@H]2[C@@H]3[C@@H](O)CC4C[C@H](O)CCC4(C)[C@H]3CCC12C)[C@@H]1C[C@@H]1C(=O)[O-],O,0,0,5.04,['5.04'],['chembl25']
795,CC(C1CC[C@H]2[C@@H]3[C@@H](O)CC4C[C@H](O)CCC4(C)[C@H]3CCC12C)[C@H]1C[C@H]1C(=O)[O-],O,0,0,5.05,['5.05'],['chembl25']
796,CC(C=C(c1cccs1)c1cccs1)[NH+](C)C,O,0,0,8.95,['8.95'],['datawarrior']
797,CC(C=C(c1cccs1)c1cccs1)[NH+]1CCCCC1,O,0,0,8.46,['8.46'],['datawarrior']
798,CC(C=C(c1cccs1)c1cccs1)[NH+]1CCCCC1C,O,0,0,7.46,['7.46'],['datawarrior']
799,CC(C=C(c1cccs1)c1cccs1)[NH+]1CCCCCC1,O,0,0,7.96,['7.96'],['datawarrior']
800,CC(C=C(c1cccs1)c1cccs1)[NH+]1CCCCCCC1,O,0,0,7.52,['7.52'],['datawarrior']
801,CC(CC(=O)[O-])C(N)=O,O,0,0,4.59,['4.59'],['datawarrior']
802,CC(CC(C#N)(c1ccccc1)c1ccccc1)[NH+]1CCCCC1,O,0,0,7.73,['7.73'],['datawarrior']
803,CC(CC(C#N)(c1ccccc1)c1ccccc1)[NH+]1CCOCC1,O,0,0,6.1,['6.1'],['datawarrior']
804,CC(CC(O)(c1ccccc1)c1ccccc1)[NH+]1CCCCC1,O,0,0,8.62,['8.62'],['datawarrior']
805,CC(CC(c1ccccc1)c1ccccc1)[NH+]1CCCCC1,O,0,0,8.8,['8.8'],['datawarrior']
806,CC(CC(c1ccccc1)c1ccccc1)[NH+]1CCOCC1,O,0,0,6.9,['6.9'],['datawarrior']
807,CC(CC[NH+](C)C)N=O,O,0,0,11.2,['11.2'],['datawarrior']
808,CC(CN1c2ccccc2CCc2ccccc21)C[NH+](C)C,O,0,0,8.72,['8.72'],['chembl25']
809,CC(CN1c2ccccc2Sc2ccccc21)C[NH+](C)C,O,0,0,9.235,['9.235'],['chembl25']
810,CC(CN1c2ccccc2Sc2ccccc21)[NH+](C)C,O,0,0,9.07,['9.07'],"['datawarrior', 'chembl25']"
811,CC(CO)C[NH+](C)C,O,0,0,9.75,['9.75'],['datawarrior']
812,CC(C[NH+](C)C)C(C#N)(c1ccccc1)c1ccccc1,O,0,0,7.9,['7.9'],['datawarrior']
813,CC(C[NH+](C)C)N=O,O,0,0,10.9,['10.9'],['datawarrior']
814,CC(C[NH+]1CCCCC1)C(C#N)(c1ccccc1)c1ccccc1,O,0,0,7.54,['7.54'],['datawarrior']
815,CC(Cc1ccccc1)N(C)CCC#N,O,0,0,6.95,['6.95'],['datawarrior']
816,CC(Cc1ccccc1)NCCC#N,O,0,0,7.23,['7.23'],['datawarrior']
817,CC(Cc1ccccc1)[NH2+]CCC(c1ccccc1)c1ccccc1,O,0,0,8.92,['8.92'],['chembl25']
818,CC(Cl)C(=O)[O-],O,0,0,2.88,['2.88'],['datawarrior']
819,CC(Cl)C[NH+](C)C,O,0,0,8.12,['8.12'],['datawarrior']
820,CC(Cl)C[NH3+],O,0,0,8.54,['8.54'],['datawarrior']
821,CC(I)C(=O)[O-],O,0,0,3.21,['3.21'],['datawarrior']
822,CC(N)=[NH+]c1nsc2ccccc12,O,0,0,6.99,['6.99'],['chembl25']
823,CC(N)CC#N,O,0,0,7.85,['7.85'],['datawarrior']
824,CC(N=O)C(C[NH+](C)C)N=O,O,0,0,9.5,['9.5'],['datawarrior']
825,CC(Nc1ccc2c(c1)[C@@H](NC(=O)c1ccc(Br)cc1)[C@H](O)C2)=[NH+]Cc1ccc(F)cc1,O,0,0,8.49,['8.49'],['chembl25']
826,CC(Nc1ccc2c(c1)[C@@H](NC(=O)c1ccc(Br)cc1)[C@H](O)C2)=[NH+]c1ccc(F)cc1,O,0,0,8.2,['8.2'],['chembl25']
827,CC(Nc1ccccc1)=[NH+]c1ccccc1,O,0,0,8.3,['8.3'],['datawarrior']
828,CC(O)(C(=O)[O-])c1ccccc1,O,0,0,3.53,['3.53'],['datawarrior']