,Solute SMILES,Solvent SMILES,Solute CAS,Solute IUPAC,pKa (avg),pKa (all),Source
1105,CCC(O)C[NH+](CC)CC(O)CC,O,0,0,9.2,['9.2'],['datawarrior']
1106,CCC(O)C[NH+](CC)CCO,O,0,0,9.1,['9.1'],['datawarrior']
1107,CCC(O)C[NH+](CCO)C(C)(C)C,O,0,0,9.4,['9.4'],['datawarrior']
1108,CCC(Oc1ccccc1C)C(=O)[O-],O,0,0,3.43,['3.43'],['datawarrior']
1109,CCC(P)C(=O)[O-],O,0,0,4.08,['4.08'],['datawarrior']
1110,CCC([NH3+])(CC)CC,O,0,0,10.87,['10.87'],['datawarrior']
1111,CCC([NH3+])(CO)CO,O,0,0,8.8,['8.8'],['datawarrior']
1112,CCC([NH3+])CCCl,O,0,0,8.53,['8.53'],['datawarrior']
1113,CCC([NH3+])CO,O,0,0,9.53,['9.53'],['datawarrior']
1114,CCC/C=C(/C)C(=O)[O-],O,0,0,4.44,['4.44'],['datawarrior']
1115,CCC/C=C(\C)C(=O)[O-],O,0,0,5.13,['5.13'],['datawarrior']
1116,CCC/C=C/C(=O)[O-],O,0,0,4.71,['4.71'],['datawarrior']
1117,CCC/C=C1\CCC[NH+]1C,O,0,0,11.88,['11.88'],['datawarrior']
1118,CCC1(C)C(=O)Nc2ccc(S(=O)(=O)Nc3ccc(F)cc3F)cc2C(=O)N1C,O,0,0,7.1,['7.1'],['chembl25']
1119,CCC1(C)CC(=O)NC1=O,O,0,0,9.34,['9.34'],['datawarrior']
1120,CCC1(C)NC(=O)c2cc(S(=O)(=O)Nc3ccc(Cl)cc3)ccc2N(C)C1=O,O,0,0,7.9,['7.9'],['chembl25']
1121,CCC1(C)NC(=O)c2cc(S(=O)(=O)Nc3ccc(Cl)cc3)ccc2NC1=O,O,0,0,8.1,['8.1'],['chembl25']
1122,CCC1(C)NC(=O)c2cc(S(=O)(=O)Nc3ccc(OC)cc3)ccc2NC1=O,O,0,0,5.6,['5.6'],['chembl25']
1123,CCC1(C)NC(=O)c2cc(S(=O)(=O)Nc3ccccc3)ccc2NC1=O,O,0,0,8.7,['8.7'],['chembl25']
1124,CCC1(C)NC(=O)c2cc(S(=O)(=O)Nc3ccccc3Cl)ccc2NC1=O,O,0,0,7.2,['7.2'],['chembl25']
1125,CCC1(C)OC(=O)[N-]C1=O,O,0,0,6.0,['6.0'],['datawarrior']
1126,CCC1(C2CCCC2)Cc2cc(OCC(=O)[O-])c(Cl)c(Cl)c2C1=O,O,0,0,3.9,['3.9'],['chembl25']
1127,CCC1(C2CCCC2)Cc2cc(OCCCC(=O)[O-])c(Cl)c(Cl)c2C1=O,O,0,0,3.8,['3.8'],['chembl25']
1128,CCC1(CC)C(=O)[N-]C(=O)N(C(=O)c2ccccc2OC)C1=O,O,0,0,6.54,['6.54'],['datawarrior']
1129,CCC1(CC)CNc2ccc(S(=O)(=O)Nc3ccc(F)cc3F)cc2C(=O)N1,O,0,0,8.0,['8.0'],['chembl25']
1130,CCC1(CC)OC(=O)[N-]C1=O,O,0,0,5.7,['5.7'],['datawarrior']
1131,CCC1(CC)SC(=O)[N-]C1=O,O,0,0,6.42,['6.42'],['datawarrior']
1132,CCC1(c2cccc(-c3cncnc3)c2)[NH+]=C(N)c2ccccc2O1,O,0,0,8.4,['8.4'],['chembl25']
1133,CCC1(c2ccccc2)C(=O)NC(=S)N(C)C1=O,O,0,0,7.65,['7.65'],['datawarrior']
1134,CCC12C=CC(=O)C=C1c1c(cc(OCC(=O)[O-])c(Cl)c1Cl)C2,O,0,0,3.7,['3.7'],['chembl25']
1135,CCC12CC3CC(CC([NH3+])(C3)C1)C2,O,0,0,10.61,['10.61'],['chembl25']
1136,CCC12CCC(=O)C=C1c1c(cc(OCC(=O)OC(C)(C)C(=O)[O-])c(Cl)c1Cl)C2,O,0,0,3.8,['3.8'],['chembl25']
1137,CCC12CCC(=O)C=C1c1c(cc(OCC(=O)OCC(=O)[O-])c(Cl)c1Cl)C2,O,0,0,3.8,['3.8'],['chembl25']
1138,CCC12CCC(=O)C=C1c1c(cc(OCC(=O)OCC[NH+]3CCOCC3)c(Cl)c1Cl)C2,O,0,0,5.08,['5.08'],['chembl25']
1139,CCC12CCC(=O)C=C1c1c(cc(OCC(=O)OCc3cccnc3)c(Cl)c1Cl)C2,O,0,0,3.32,['3.32'],['chembl25']
1140,CCC12CCC(=O)C=C1c1c(cc(OCC(=O)[O-])c(Cl)c1Cl)C2,O,0,0,3.6,['3.6'],['chembl25']
1141,CCC12CCC(=O)C=C1c1c(cc(OCCCC(=O)[O-])c(Cl)c1Cl)C2,O,0,0,3.7,['3.7'],['chembl25']
1142,CCC12CCC(=O)C=C1c1c(cc(OCc3nn[n-]n3)c(Cl)c1Cl)C2,O,0,0,3.72,['3.72'],['chembl25']
1143,CCC1=C(C)CN(C(=O)NCCc2ccc(S(=O)(=O)NC(=O)N[C@H]3CC[C@H](C)CC3)cc2)C1=O,O,0,0,6.2,['6.2'],['chembl25']
1144,CCC1=C([O-])C(CC)C1=O,O,0,0,3.5,['3.5'],['datawarrior']
1145,CCC1=C([O-])c2ccccc2C1=O,O,0,0,6.5,['6.5'],['datawarrior']
1146,CCC1=NCCC1,O,0,0,7.91,['7.91'],['datawarrior']
1147,CCC1C2CC3C4N(C)c5ccccc5C45CC(C2[C@H]5O)[NH+]3C1O,O,0,0,6.5,['6.5'],['chembl25']
1148,CCC1CCC[NH+]1C,O,0,0,9.78,['9.78'],['datawarrior']
1149,CCC1CSC(C(C)C)=N1,O,0,0,5.28,['5.28'],['datawarrior']
1150,CCC1C[NH+]1CC,O,0,0,8.19,['8.19'],['datawarrior']
1151,CCC1C[NH2+]1,O,0,0,5.69,['5.69'],['datawarrior']
1152,CCC1N=CC[NH2+]1,O,0,0,7.73,['7.73'],['chembl25']
1153,CCC1OC(=O)CC(O)C(C)C(O[C@@H]2O[C@H](C)C[C@H]([NH+](C)C)[C@H]2O)C(CC=O)CC(C)C(=O)/C=C\C(C)=C/C1C,O,0,0,8.83,['8.83'],['chembl25']
1154,CCCC(=N)OCC,O,0,0,7.08,['7.08'],['datawarrior']
1155,CCCC(=O)C(CC[NH+]1CCOCC1)(c1ccccc1)c1ccccc1,O,0,0,7.17,['7.17'],['datawarrior']
1156,CCCC(=O)NO,O,0,0,9.48,['9.48'],['datawarrior']
1157,CCCC(=O)Nc1ccc(OCC(O)C[NH2+]C(C)C)c(C(C)=O)c1,O,0,0,9.596,['9.596'],['chembl25']
1158,CCCC(=O)OC(C)C[NH+](C)C,O,0,0,8.27,['8.27'],['datawarrior']
1159,CCCC(=O)OCC[NH+](C)C,O,0,0,8.31,['8.31'],['datawarrior']
1160,CCCC(=O)OO,O,0,0,8.2,['8.2'],['datawarrior']
1161,CCCC(=O)SCC[NH+](C)C,O,0,0,8.32,['8.32'],['datawarrior']
1162,CCCC(=O)[O-],O,0,0,4.8,['4.8'],['datawarrior']
1163,CCCC(=O)c1cc(C(C)=O)n[nH]1,O,0,0,9.28,['9.28'],['datawarrior']
1164,CCCC(C(=O)Nc1c(C)cccc1C)[NH+](CC)CC,O,0,0,7.89,['7.89'],['chembl25']
1165,CCCC(C(CC)CO)C(CC)C(=O)[O-],O,0,0,4.78,['4.78'],['datawarrior']
1166,CCCC(CCC)C(=O)[O-],O,0,0,4.8,['4.8'],['chembl25']
1167,CCCC(O)C(C(=O)[O-])c1ccc(-c2ccccc2)cc1,O,0,0,4.01,['4.01'],['datawarrior']
1168,CCCC1(C2CCCC2)Cc2cc(OCCCC(=O)[O-])c(Cl)c(Cl)c2C1=O,O,0,0,4.1,['4.1'],['chembl25']
1169,CCCC1(CCC)SC(=O)[N-]C1=O,O,0,0,6.37,['6.37'],['datawarrior']
1170,CCCC12CC(=O)C=C1c1c(cc(OCC(=O)[O-])c(Cl)c1Cl)C2,O,0,0,3.84,['3.84'],['chembl25']
1171,CCCC12CCC(=O)C(C)=C1c1c(cc(OCC(=O)[O-])c(Cl)c1Cl)C2,O,0,0,3.5,['3.5'],['chembl25']
1172,CCCC12CCC(=O)C=C1c1c(cc(O)c(Cl)c1Cl)C2,O,0,0,6.18,['6.18'],['chembl25']
1173,CCCC12CCC(=O)C=C1c1c(cc(OCC(=O)NCC[NH+](C)C)c(Cl)c1Cl)C2,O,0,0,7.7,['7.7'],['chembl25']
1174,CCCC12CCC(=O)C=C1c1c(cc(OCC(=O)OC(C)(C)C(=O)[O-])c(Cl)c1Cl)C2,O,0,0,3.8,['3.8'],['chembl25']
1175,CCCC12CCC(=O)C=C1c1c(cc(OCC(=O)OC(CC)(CC)C(=O)[O-])c(Cl)c1Cl)C2,O,0,0,3.4,['3.4'],['chembl25']
1176,CCCC12CCC(=O)C=C1c1c(cc(OCC(=O)[O-])c(C)c1C)C2,O,0,0,4.3,['4.3'],['chembl25']
1177,CCCC12CCC(=O)C=C1c1c(cc(OCC(=O)[O-])c(Cl)c1Cl)C2,O,0,0,3.6,['3.6'],['chembl25']
1178,CCCC12CCC(=O)C=C1c1c(cc(OCCCC(=O)[O-])c(Cl)c1Cl)C2,O,0,0,3.7,['3.7'],['chembl25']
1179,CCCC12CCC(=O)C=C1c1c(cc(SCC(=O)[O-])c(Cl)c1Cl)C2,O,0,0,4.7,['4.7'],['chembl25']
1180,CCCC12CCC(=O)C=C1c1ccc(OCC(=O)[O-])cc1C2,O,0,0,4.05,['4.05'],['chembl25']
1181,CCCC12CCC(C(C)=O)=C1c1c(cc(OCC(=O)[O-])c(Cl)c1Cl)C2,O,0,0,4.1,['4.1'],['chembl25']
1182,CCCC1=NC(=O)C(c2ccccc2)=C1[O-],O,0,0,4.6,['4.6'],['chembl25']
1183,CCCC1CCC[NH+]1C,O,0,0,9.78,['9.78'],['datawarrior']
1184,CCCCC#CC(=O)[O-],O,0,0,2.61,['2.61'],['datawarrior']
1185,CCCCC(=O)[O-],O,0,0,4.82,['4.82'],['datawarrior']
1186,CCCCC(C(=O)Nc1c(C)cccc1C)[NH+](CC)CC,O,0,0,7.81,['7.81'],['chembl25']
1187,CCCCC(CC)C(=O)O[C@H]1O[C@@H](C(=O)[O-])[C@H](O)[C@@H](O)[C@@H]1O,O,0,0,3.08,['3.08'],['datawarrior']
1188,CCCCC(CC)C(=O)[O-],O,0,0,4.76,['4.76'],['datawarrior']
1189,CCCCC/C(N)=N/[NH+](C)C,O,0,0,10.4,['10.4'],['datawarrior']
1190,CCCCC1(C2CCCC2)Cc2cc(OCC(=O)[O-])c(Cl)c(Cl)c2C1=O,O,0,0,3.9,['3.9'],['chembl25']
1191,CCCCC1(C2CCCC2)Cc2cc(OCCCC(=O)[O-])c(Cl)c(Cl)c2C1=O,O,0,0,4.4,['4.4'],['chembl25']
1192,CCCCC12CCC(=O)C=C1c1c(cc(OCC(=O)[O-])c(Cl)c1Cl)C2,O,0,0,3.5,['3.5'],['chembl25']
1193,CCCCC1CCC[NH+]1C,O,0,0,10.01,['10.01'],['datawarrior']
1194,CCCCCC(=O)NO,O,0,0,9.58,['9.58'],['datawarrior']
1195,CCCCCC(=O)[O-],O,0,0,4.85,['4.85'],['datawarrior']
1196,CCCCCC(C)(C)[NH3+],O,0,0,10.83,['10.83'],['datawarrior']
1197,CCCCCC(C)[NH2+]C,O,0,0,10.99,['10.99'],['datawarrior']
1198,CCCCCC(C)[NH3+],O,0,0,11.15,['11.15'],['datawarrior']
1199,CCCCCC(O)=CC(C)=O,O,0,0,9.2,['9.2'],['datawarrior']
1200,CCCCCC(O)CCC1CCC(=O)N1CCCCCCC(=O)[O-],O,0,0,5.25,['5.25'],['chembl25']
1201,CCCCCCC(=O)NO,O,0,0,9.62,['9.62'],['datawarrior']
1202,CCCCCCC(=O)[O-],O,0,0,4.88,['4.88'],"['datawarrior', 'chembl25']"
1203,CCCCCCC(C)(C)c1cc(O)c2c(c1)OC(C)(C)C1CCC(=O)CC21,O,0,0,10.6,['10.6'],['chembl25']
1204,CCCCCCC(C)(C)c1ccc([C@@H]2C[C@H](O)CC[C@H]2CCCO)c(O)c1,O,0,0,11.16,['11.16'],['chembl25']
1205,CCCCCCCC(=O)NO,O,0,0,9.19,['9.19'],['datawarrior']
1206,CCCCCCCC(=O)N[C@H]1C(=O)N2[C@H]1SC(C)(C)[C@H]2C(=O)[O-],O,0,0,2.66,['2.66'],['datawarrior']
1207,CCCCCCCC(=O)[O-],O,0,0,4.9,['4.9'],['chembl25']
1208,CCCCCCCC/C=C\CCCCCCCC(=O)[O-],O,0,0,4.95,['4.95'],['datawarrior']
1209,CCCCCCCCC(=O)OO,O,0,0,8.23,['8.23'],['datawarrior']
1210,CCCCCCCCC(=O)[O-],O,0,0,4.9,['4.9'],['chembl25']
1211,CCCCCCCCC1CCC(=O)N1CCCCCCC(=O)[O-],O,0,0,5.6,['5.6'],['chembl25']
1212,CCCCCCCCCC(=O)[O-],O,0,0,4.895,['4.895'],"['datawarrior', 'chembl25']"
1213,CCCCCCCCCCC(=O)[O-],O,0,0,4.9,['4.9'],['chembl25']
1214,CCCCCCCCCCCC(=O)NCCCC[C@H]([NH3+])C(=O)OC,O,0,0,9.1,['9.1'],['chembl25']
1215,CCCCCCCCCCCC(=O)N[C@@H](CCCC[NH3+])C(=O)OC,O,0,0,10.0,['10.0'],['chembl25']
1216,CCCCCCCCCCCC(=O)[O-],O,0,0,4.895,['4.895'],"['datawarrior', 'chembl25']"
1217,CCCCCCCCCCCCC(=O)[O-],O,0,0,4.9,['4.9'],['chembl25']
1218,CCCCCCCCCCCCCC(=O)N(O)c1ccccc1,O,0,0,9.05,['9.05'],['datawarrior']
1219,CCCCCCCCCCCCCC(=O)NCCCC[C@H]([NH3+])C(=O)OC,O,0,0,7.8,['7.8'],['chembl25']
1220,CCCCCCCCCCCCCCC(=O)[O-],O,0,0,5.01,['5.01'],['datawarrior']
1221,CCCCCCCCCCCCCCCC(=O)OCC1CCP([O-])(=S)O1,O,0,0,6.48,['6.48'],['chembl25']
1222,CCCCCCCCCCCCCCCCCC(=O)OCC1CCP([O-])(=S)O1,O,0,0,6.76,['6.76'],['chembl25']
1223,CCCCCCCCCCCCCCCCCC(=O)[O-],O,0,0,5.01,['5.01'],['datawarrior']
1224,CCCCCCCCCCCCCCCCCCCCCC[NH3+],O,0,0,10.6,['10.6'],['datawarrior']
1225,CCCCCCCCCCCCCCCCCCNCC(F)(F)F,O,0,0,4.7,['4.7'],['chembl25']
1226,CCCCCCCCCCCCCCCCCC[NH+](CC(C)O)CC(C)O,O,0,0,9.4,['9.4'],['datawarrior']
1227,CCCCCCCCCCCCCCCCCC[NH3+],O,0,0,10.6,['10.6'],['datawarrior']
1228,CCCCCCCCCCCCCCCCC[NH3+],O,0,0,10.6,['10.6'],['datawarrior']
1229,CCCCCCCCCCCCCCCCCc1c2ccccc2nc2ccccc12,O,0,0,5.5,['5.5'],['datawarrior']
1230,CCCCCCCCCCCCCCCCNCC(F)(F)F,O,0,0,5.2,['5.2'],['chembl25']
1231,CCCCCCCCCCCCCCCC[NH+](CC(C)O)CC(C)O,O,0,0,9.19,['9.19'],['datawarrior']
1232,CCCCCCCCCCCCCCCC[NH3+],O,0,0,10.61,['10.61'],['datawarrior']
1233,CCCCCCCCCCCCCCC[NH2+]CCCCCCCCCCCCCCC,O,0,0,11.0,['11.0'],['datawarrior']
1234,CCCCCCCCCCCCCCC[NH3+],O,0,0,10.61,['10.61'],['datawarrior']
1235,CCCCCCCCCCCCCC[NH+](CC(C)O)CC(C)O,O,0,0,8.4,['8.4'],['datawarrior']
1236,CCCCCCCCCCCCCC[NH+](CC(C)O)CC(O)CC,O,0,0,6.1,['6.1'],['datawarrior']
1237,CCCCCCCCCCCCCC[NH+](CCO)CC(C)O,O,0,0,6.3,['6.3'],['datawarrior']
1238,CCCCCCCCCCCCCC[NH+](CCO)CC(O)CC,O,0,0,6.1,['6.1'],['datawarrior']
1239,CCCCCCCCCCCCCC[NH3+],O,0,0,10.62,['10.62'],['datawarrior']
1240,CCCCCCCCCCCCCCn1cc(C[NH2+][C@H]2[C@H](O)[C@@H](O)[C@H](O)[C@@H](O)[C@@H]2O)nn1,O,0,0,7.7,['7.7'],['chembl25']
1241,CCCCCCCCCCCCC[NH2+]CCCCCCCCCCCCC,O,0,0,11.0,['11.0'],['datawarrior']
1242,CCCCCCCCCCCCC[NH3+],O,0,0,10.63,['10.63'],['datawarrior']
1243,CCCCCCCCCCCCCc1ccccn1,O,0,0,5.6,['5.6'],['chembl25']
1244,CCCCCCCCCCCCCc1ccncc1,O,0,0,5.9,['5.9'],['chembl25']
1245,CCCCCCCCCCCCN(Cc1nn[n-]n1)c1ccccc1,O,0,0,4.92,['4.92'],['chembl25']
1246,CCCCCCCCCCCCNCC(F)(F)F,O,0,0,5.5,['5.5'],['chembl25']
1247,CCCCCCCCCCCCNCC(F)F,O,0,0,7.5,['7.5'],['chembl25']
1248,CCCCCCCCCCCCNc1ccccc1,O,0,0,4.12,['4.12'],['datawarrior']
1249,CCCCCCCCCCCC[NH+](CC(C)O)CC(C)O,O,0,0,7.8,['7.8'],['datawarrior']
1250,CCCCCCCCCCCC[NH+](CC(C)O)CC(O)CC,O,0,0,6.2,['6.2'],['datawarrior']
1251,CCCCCCCCCCCC[NH+](CCO)CC(C)O,O,0,0,6.5,['6.5'],['datawarrior']
1252,CCCCCCCCCCCC[NH+](CCO)CC(O)CC,O,0,0,6.4,['6.4'],['datawarrior']
1253,CCCCCCCCCCCC[NH+]1CCOCC1,O,0,0,7.6,['7.6'],['chembl25']
1254,CCCCCCCCCCCC[NH2+]CCCCCCCCCCCC,O,0,0,11.0,['11.0'],['datawarrior']
1255,CCCCCCCCCCCC[NH3+],O,0,0,10.615,['10.615'],"['datawarrior', 'chembl25']"
1256,CCCCCCCCCCCCn1cc(C[NH2+][C@H]2[C@H](O)[C@@H](O)[C@H](O)[C@@H](O)[C@@H]2O)nn1,O,0,0,7.1,['7.1'],['chembl25']
1257,CCCCCCCCCCC[NH2+]Cc1ccc(C)cc1,O,0,0,9.46,['9.46'],['datawarrior']
1258,CCCCCCCCCCC[NH3+],O,0,0,10.63,['10.63'],['datawarrior']
1259,CCCCCCCCCCCn1cc(CC[NH2+][C@H]2[C@H](O)[C@@H](O)[C@H](O)[C@@H](O)[C@@H]2O)nn1,O,0,0,9.1,['9.1'],['chembl25']
1260,CCCCCCCCCCN(Cc1nn[n-]n1)c1ccccc1,O,0,0,4.87,['4.87'],['chembl25']
1261,CCCCCCCCCCNc1ccccc1,O,0,0,4.56,['4.56'],['datawarrior']
1262,CCCCCCCCCCOC(=O)c1ccc(OS(N)(=O)=O)cc1,O,0,0,8.09,['8.09'],['chembl25']
1263,CCCCCCCCCC[NH+](CC(C)O)CC(C)O,O,0,0,7.6,['7.6'],['datawarrior']
1264,CCCCCCCCCC[NH+](CC(C)O)CC(O)CC,O,0,0,6.7,['6.7'],['datawarrior']
1265,CCCCCCCCCC[NH+](CC(O)CC)CC(O)CC,O,0,0,6.6,['6.6'],['datawarrior']
1266,CCCCCCCCCC[NH+](CCO)CC(C)O,O,0,0,7.5,['7.5'],['datawarrior']
1267,CCCCCCCCCC[NH+](CCO)CC(O)CC,O,0,0,7.2,['7.2'],['datawarrior']
1268,CCCCCCCCCC[NH2+]Cc1ccc(C)cc1,O,0,0,9.48,['9.48'],['datawarrior']
1269,CCCCCCCCCC[NH3+],O,0,0,10.64,['10.64'],['datawarrior']
1270,CCCCCCCCCCc1c(-c2ccccc2)[nH][nH]c1=O,O,0,0,11.0,['11.0'],['datawarrior']
1271,CCCCCCCCCCc1c(-c2ccccc2)[nH]n(-c2ccccc2)c1=O,O,0,0,6.7,['6.7'],['datawarrior']
1272,CCCCCCCCCCn1cc(CCC[NH2+][C@H]2[C@H](O)[C@@H](O)[C@H](O)[C@@H](O)[C@@H]2O)nn1,O,0,0,9.9,['9.9'],['chembl25']
1273,CCCCCCCCCCn1cc(C[NH2+][C@H]2[C@H](O)[C@@H](O)[C@H](O)[C@@H](O)[C@@H]2O)nn1,O,0,0,7.1,['7.1'],['chembl25']
1274,CCCCCCCCCOC(=O)c1ccc(OS(N)(=O)=O)cc1,O,0,0,8.39,['8.39'],['chembl25']
1275,CCCCCCCCC[NH2+]Cc1ccc(C)cc1,O,0,0,9.48,['9.48'],['datawarrior']
1276,CCCCCCCCCc1c(-c2ccccc2)[nH][nH]c1=O,O,0,0,10.6,['10.6'],['datawarrior']
1277,CCCCCCCCCc1c(-c2ccccc2)[nH]n(-c2ccccc2)c1=O,O,0,0,7.2,['7.2'],['datawarrior']
1278,CCCCCCCCCn1cc(CC[NH2+][C@H]2[C@H](O)[C@@H](O)[C@H](O)[C@@H](O)[C@@H]2O)nn1,O,0,0,9.1,['9.1'],['chembl25']
1279,CCCCCCCCCn1cc(C[NH2+][C@H]2[C@H](O)[C@@H](O)[C@H](O)[C@@H](O)[C@@H]2O)nn1,O,0,0,7.1,['7.1'],['chembl25']
1280,CCCCCCCCCn1ccnc1,O,0,0,6.6,['6.6'],['chembl25']
1281,CCCCCCCCN(Cc1nn[n-]n1)c1ccccc1,O,0,0,4.83,['4.83'],['chembl25']
1282,CCCCCCCCNCC(F)(F)F,O,0,0,5.9,['5.9'],['chembl25']
1283,CCCCCCCCOC(=O)c1ccc(OS(N)(=O)=O)cc1,O,0,0,8.09,['8.09'],['chembl25']
1284,CCCCCCCCOCC[NH+](C)C,O,0,0,8.87,['8.87'],['datawarrior']
1285,CCCCCCCC[NH+](CC(C)O)CC(C)O,O,0,0,8.3,['8.3'],['datawarrior']
1286,CCCCCCCC[NH+](CC(C)O)CC(O)CC,O,0,0,8.1,['8.1'],['datawarrior']
1287,CCCCCCCC[NH+](CC(O)CC)CC(O)CC,O,0,0,7.5,['7.5'],['datawarrior']
1288,CCCCCCCC[NH+](CCO)CC(C)O,O,0,0,8.2,['8.2'],['datawarrior']
1289,CCCCCCCC[NH+](CCO)CC(O)CC,O,0,0,8.3,['8.3'],['datawarrior']
1290,CCCCCCCC[NH+]1CCCCC1,O,0,0,8.28,['8.28'],['datawarrior']
1291,CCCCCCCC[NH2+]Cc1ccc(C)cc1,O,0,0,9.47,['9.47'],['datawarrior']
1292,CCCCCCCC[NH3+],O,0,0,10.76,['10.76'],['datawarrior']
1293,CCCCCCCCc1c(-c2ccccc2)[nH][nH]c1=O,O,0,0,10.2,['10.2'],['datawarrior']
1294,CCCCCCCCc1c(-c2ccccc2)[nH]n(-c2ccccc2)c1=O,O,0,0,7.5,['7.5'],['datawarrior']
1295,CCCCCCCCn1cc(CCC[NH2+][C@H]2[C@H](O)[C@@H](O)[C@H](O)[C@@H](O)[C@@H]2O)nn1,O,0,0,9.4,['9.4'],['chembl25']
1296,CCCCCCCCn1cc(CC[NH2+][C@H]2[C@H](O)[C@@H](O)[C@H](O)[C@@H](O)[C@@H]2O)nn1,O,0,0,9.1,['9.1'],['chembl25']
1297,CCCCCCCCn1cc(C[NH2+][C@H]2[C@H](O)[C@@H](O)[C@H](O)[C@@H](O)[C@@H]2O)nn1,O,0,0,7.7,['7.7'],['chembl25']
1298,CCCCCCCN(CCCCCCC)c1ccccc1,O,0,0,3.33,['3.33'],['datawarrior']
1299,CCCCCCCNc1c2ccc(Cl)cc2[nH+]c2ccc(OC)cc12,O,0,0,7.5,['7.5'],['chembl25']
1300,CCCCCCCNc1ccccc1,O,0,0,5.09,['5.09'],['datawarrior']
1301,CCCCCCCOC(=O)c1ccc(OS(N)(=O)=O)cc1,O,0,0,8.27,['8.27'],['chembl25']
1302,CCCCCCC[NH2+]Cc1ccc(C)cc1,O,0,0,10.02,['10.02'],['datawarrior']
1303,CCCCCCC[NH3+],O,0,0,10.34,['10.34'],['datawarrior']
1304,CCCCCCCc1c(-c2ccccc2)[nH][nH]c1=O,O,0,0,9.2,['9.2'],['datawarrior']
1305,CCCCCCCc1c(-c2ccccc2)[nH]n(-c2ccccc2)c1=O,O,0,0,8.0,['8.0'],['datawarrior']
1306,CCCCCCN(CCCCCC)c1ccccc1,O,0,0,4.89,['4.89'],['datawarrior']
1307,CCCCCCN(Cc1nn[n-]n1)c1ccccc1,O,0,0,4.78,['4.78'],['chembl25']
1308,CCCCCCNc1ccccc1,O,0,0,5.21,['5.21'],['datawarrior']
1309,CCCCCCOC(=O)c1ccc(OS(N)(=O)=O)cc1,O,0,0,8.52,['8.52'],['chembl25']
1310,CCCCCCOc1ccc(-c2ccc(-c3ccccc3Cl)n2Cc2cccc(N)n2)cc1,O,0,0,6.86,['6.86'],['chembl25']
1311,CCCCCC[NH+](CC(C)O)CC(C)O,O,0,0,8.5,['8.5'],['datawarrior']
1312,CCCCCC[NH+](CC(C)O)CC(O)CC,O,0,0,8.9,['8.9'],['datawarrior']
1313,CCCCCC[NH+](CC(O)CC)CC(O)CC,O,0,0,8.6,['8.6'],['datawarrior']
1314,CCCCCC[NH+](CCO)CC(C)O,O,0,0,9.0,['9.0'],['datawarrior']
1315,CCCCCC[NH+](CCO)CC(O)CC,O,0,0,9.1,['9.1'],['datawarrior']
1316,CCCCCC[NH2+]CCCCCC,O,0,0,11.01,['11.01'],['datawarrior']
1317,CCCCCC[NH2+]Cc1ccc(C)cc1,O,0,0,10.17,['10.17'],['datawarrior']
1318,CCCCCC[NH3+],O,0,0,10.68,['10.68'],['datawarrior']
1319,CCCCCCc1c(-c2ccccc2)[nH][nH]c1=O,O,0,0,8.6,['8.6'],['datawarrior']
1320,CCCCCCc1c(-c2ccccc2)[nH]n(-c2ccccc2)c1=O,O,0,0,7.4,['7.4'],['datawarrior']
1321,CCCCCCn1cc(CCC[NH2+][C@H]2[C@H](O)[C@@H](O)[C@H](O)[C@@H](O)[C@@H]2O)nn1,O,0,0,10.4,['10.4'],['chembl25']
1322,CCCCCCn1ccnc1,O,0,0,7.2,['7.2'],['datawarrior']
1323,CCCCCN(C1=[NH+]CCN1)c1c(Br)cccc1Br,O,0,0,11.0,['11.0'],['chembl25']
1324,CCCCCNC(=O)NS(=O)(=O)c1cc(Cl)ccc1OC,O,0,0,5.46,['5.46'],['chembl25']
1325,CCCCCNC1=[NH+]CCN1OCCCc1ccccc1,O,0,0,10.0,['10.0'],['chembl25']
1326,CCCCCNC1=[NH+]CCN1OCCc1ccccc1,O,0,0,9.9,['9.9'],['chembl25']
1327,CCCCCNC1=[NH+]CCN1OCc1ccccc1,O,0,0,10.1,['10.1'],['chembl25']
1328,CCCCCNN,O,0,0,6.25,['6.25'],['datawarrior']
1329,CCCCCNc1ccccc1,O,0,0,5.2,['5.2'],['datawarrior']
1330,CCCCCNc1nc2ccccc2n1CCc1ccccc1,O,0,0,7.4,['7.4'],['chembl25']
1331,CCCCCOC(=O)c1ccc(OS(N)(=O)=O)cc1,O,0,0,8.47,['8.47'],['chembl25']
1332,CCCCCOc1ccc(-c2ccc(-c3ccccc3Cl)n2Cc2cccc(N)n2)cc1,O,0,0,6.86,['6.86'],['chembl25']
1333,CCCCCOc1ccc(C(=O)[O-])cc1,O,0,0,4.49,['4.49'],['datawarrior']
1334,CCCCCOc1ccc(O)cc1,O,0,0,10.23,['10.23'],['datawarrior']
1335,CCCCCSC(=N)c1ccccc1,O,0,0,8.5,['8.5'],['datawarrior']
1336,CCCCCSC1=[NH+]CCN1OCc1ccccc1,O,0,0,8.5,['8.5'],['chembl25']
1337,CCCCC[C@H](C)[NH3+],O,0,0,10.8,['10.8'],['datawarrior']
1338,CCCCC[NH+](CC(C)O)CC(C)O,O,0,0,9.0,['9.0'],['datawarrior']
1339,CCCCC[NH+](CC(C)O)CC(O)CC,O,0,0,9.1,['9.1'],['datawarrior']
1340,CCCCC[NH+](CC(O)CC)CC(O)CC,O,0,0,9.2,['9.2'],['datawarrior']
1341,CCCCC[NH+](CCO)CC(C)O,O,0,0,8.9,['8.9'],['datawarrior']
1342,CCCCC[NH+](CCO)CC(O)CC,O,0,0,9.1,['9.1'],['datawarrior']
1343,CCCCC[NH2+]CCCCC,O,0,0,11.18,['11.18'],['datawarrior']
1344,CCCCC[NH2+]Cc1ccc(C)cc1,O,0,0,10.08,['10.08'],['datawarrior']
1345,CCCCC[NH3+],O,0,0,10.65,['10.65'],['datawarrior']
1346,CCCCCc1c(-c2ccccc2)[nH][nH]c1=O,O,0,0,8.4,['8.4'],['datawarrior']
1347,CCCCCc1c(-c2ccccc2)[nH]n(-c2ccccc2)c1=O,O,0,0,7.3,['7.3'],['datawarrior']
1348,CCCCCc1cccnn1,O,0,0,3.7,['3.7'],['datawarrior']
1349,CCCCCn1cc(C(=O)c2cccc3ccccc23)c2ccncc21,O,0,0,5.83,['5.83'],['chembl25']
1350,CCCCCn1cc(C(=O)c2cccc3ccccc23)c2cnccc21,O,0,0,6.49,['6.49'],['chembl25']
1351,CCCCCn1ccnc1,O,0,0,7.12,['7.12'],['datawarrior']
1352,CCCCN(C)N(C)CCCC,O,0,0,7.16,['7.16'],['datawarrior']
1353,CCCCN(C1=[NH+]CCN1)c1c(Br)cccc1Br,O,0,0,10.97,['10.97'],['chembl25']
1354,CCCCN(CCCC)c1ccccc1,O,0,0,6.41,['6.41'],['datawarrior']
1355,CCCCN(CCCC)c1nnc(-c2ccccc2)cc1C,O,0,0,4.88,['4.88'],['datawarrior']
1356,CCCCN=C(C)N[NH+](C)C,O,0,0,10.4,['10.4'],['datawarrior']
1357,CCCCNC(=O)NO,O,0,0,11.0,['11.0'],['chembl25']
1358,CCCCNC(=O)NS(=O)(=O)c1ccc(C)cc1,O,0,0,5.275,['5.275'],"['datawarrior', 'chembl25']"
1359,CCCCNC(=O)[C@H](C)C[C@H](O)[C@@H]([NH3+])C[C@H](Cc1ccc(OC)c(OCCCOC)c1)C(C)C,O,0,0,9.13,['9.13'],['chembl25']
1360,CCCCNC(=O)c1ccc(-c2ccc(-c3ccccc3)n2Cc2cccc(N)n2)cc1,O,0,0,6.86,['6.86'],['chembl25']
1361,CCCCNCCC#N,O,0,0,8.3,['8.3'],['datawarrior']
1362,CCCCNN,O,0,0,7.82,['7.82'],['datawarrior']
1363,CCCCNc1c(N(C)CCC[NH+](C)C)c(=O)c1=O,O,0,0,8.8,['8.8'],['chembl25']
1364,CCCCNc1ccccc1,O,0,0,5.11,['5.11'],['datawarrior']
1365,CCCCNc1ncnc2c1cnn2C,O,0,0,4.22,['4.22'],['datawarrior']
1366,CCCCNc1nnc(-c2ccccc2)cc1C,O,0,0,6.1,['6.1'],['datawarrior']
1367,CCCCOC(=N)c1ccccc1,O,0,0,6.09,['6.09'],['datawarrior']
1368,CCCCOC(=O)[C@@H]([NH3+])CCC(=O)NCCSC(C)=O,O,0,0,8.69,['8.69'],['chembl25']
1369,CCCCOC(=O)c1ccc(N)cc1,O,0,0,2.47,['2.47'],['datawarrior']
1370,CCCCOC(=O)c1ccc(O)cc1,O,0,0,8.34,['8.34'],['datawarrior']
1371,CCCCOC(=O)c1ccc(OS(N)(=O)=O)cc1,O,0,0,8.07,['8.07'],['chembl25']
1372,CCCCOC(=S)[N-]C(C)=O,O,0,0,9.25,['9.25'],['datawarrior']
1373,CCCCOc1cc(C(=O)NCC[NH+](CC)CC)c2ccccc2n1,O,0,0,8.85,['8.85'],['chembl25']
1374,CCCCOc1ccc(-c2ccc(-c3ccccc3Cl)n2Cc2cccc(N)n2)cc1,O,0,0,6.86,['6.86'],['chembl25']
1375,CCCCOc1ccc(C(=O)[O-])cc1,O,0,0,4.48,['4.48'],['datawarrior']
1376,CCCCOc1ccc(O)cc1,O,0,0,10.23,['10.23'],['datawarrior']
1377,CCCCOc1ccc(OCCC[NH+]2CCOCC2)cc1,O,0,0,6.24,['6.24'],['datawarrior']
1378,CCCCOc1cccc(C(=O)[O-])c1,O,0,0,4.25,['4.25'],['datawarrior']
1379,CCCCOc1noc2c1C[NH2+]CC2,O,0,0,7.6,['7.6'],['chembl25']
1380,CCCCS,O,0,0,10.78,['10.78'],['datawarrior']
1381,CCCCS(=O)[O-],O,0,0,2.2,['2.2'],['datawarrior']
1382,CCCCSC(=N)c1ccccc1,O,0,0,8.21,['8.21'],['datawarrior']