,Solute SMILES,Solvent SMILES,Solute CAS,Solute IUPAC,pKa (avg),pKa (all),Source
4055,Cc1onc(-c2c(Cl)cccc2Cl)c1C(=O)N[C@@H]1C(=O)N2[C@@H](C(=O)[O-])C(C)(C)S[C@H]12,O,0,0,2.8,['2.8'],['chembl25']
4056,Cc1onc(-c2ccccc2)c1C(=O)N[C@@H]1C(=O)N2[C@@H](C(=O)[O-])C(C)(C)S[C@H]12,O,0,0,2.8,['2.8'],['chembl25']
4057,Cc1sccc1[C@@H]1CCc2c(C(=O)N(C)C)cc3c(nc(C)n3C)c2O1,O,0,0,5.66,['5.66'],['chembl25']
4058,ClC1CC2CCN1CC2,O,0,0,6.98,['6.98'],['datawarrior']
4059,ClC1C[NH+]2CCC1CC2,O,0,0,8.79,['8.79'],['datawarrior']
4060,ClCC1CC2CC[NH+]1CC2,O,0,0,9.68,['9.68'],['datawarrior']
4061,ClCC1C[NH+]2CCC1CC2,O,0,0,10.15,['10.15'],['datawarrior']
4062,ClCC[NH+]1CCOCC1,O,0,0,6.27,['6.27'],['datawarrior']
4063,Clc1cc(-c2ccccc2)nnc1NCC[NH+]1CCOCC1,O,0,0,4.59,['4.59'],['datawarrior']
4064,Clc1cc(-c2cn[nH]n2)ccn1,O,0,0,7.6,['7.6'],['chembl25']
4065,Clc1cc(Br)cc(Cl)c1NC1=[NH+]CCN1,O,0,0,7.72,['7.72'],['chembl25']
4066,Clc1cc(Cl)c(NC2=[NH+]CCN2)c(Cl)c1,O,0,0,7.7,['7.7'],['chembl25']
4067,Clc1cc(Cl)c(NC2=[NH+]CCN2)cc1Cl,O,0,0,7.7,['7.7'],['chembl25']
4068,Clc1cc2cccnc2c2ncccc12,O,0,0,4.22,['4.22'],['datawarrior']
4069,Clc1ccc(-c2cn[nH]n2)cc1,O,0,0,8.46,['8.46'],['chembl25']
4070,Clc1ccc(-n2cc(NCC[NH+]3CCOCC3)nn2)cc1Cl,O,0,0,6.6,['6.6'],['chembl25']
4071,Clc1ccc(C(Cn2ccnc2)OCc2ccc(Sc3ccccc3)cc2)c(Cl)c1,O,0,0,6.54,['6.54'],['datawarrior']
4072,Clc1ccc(C/C(=C\C[NH+]2CCCC2)c2ccccc2)cc1,O,0,0,8.77,['8.77'],['datawarrior']
4073,Clc1ccc(C2C[NH2+]2)cc1,O,0,0,6.18,['6.18'],['datawarrior']
4074,Clc1ccc(C2[NH2+]CCS2)cc1,O,0,0,5.01,['5.01'],['datawarrior']
4075,Clc1ccc(CN(Cc2nn[n-]n2)c2ccccc2)c(Cl)c1,O,0,0,4.54,['4.54'],['chembl25']
4076,Clc1ccc(CN(Cc2nn[n-]n2)c2ccccc2)cc1,O,0,0,4.38,['4.38'],['chembl25']
4077,Clc1ccc(CN(Cc2nn[n-]n2)c2ccccc2)cc1Cl,O,0,0,4.49,['4.49'],['chembl25']
4078,Clc1ccc(Cc2c3ccccc3nc3ccccc23)cc1,O,0,0,7.06,['7.06'],['chembl25']
4079,Clc1ccc(Cl)c(-c2cn[nH]n2)c1,O,0,0,8.17,['8.17'],['chembl25']
4080,Clc1ccc(Cl)c(NC2=[NH+]CCN2)c1,O,0,0,8.333333,['8.333333'],['chembl25']
4081,Clc1ccc(Cn2cc(NCC[NH+]3CCOCC3)nn2)cc1Cl,O,0,0,6.7,['6.7'],['chembl25']
4082,Clc1ccc(NC2=[NH+]CCN2)c(Cl)c1,O,0,0,8.703333,['8.703333'],['chembl25']
4083,Clc1ccc(Nc2c3ccccc3nc3ccccc23)cc1,O,0,0,7.06,['7.06'],['chembl25']
4084,Clc1ccc2c(NCc3nc(-c4ccccc4)co3)cc[nH+]c2c1,O,0,0,6.36,['6.36'],['chembl25']
4085,Clc1ccc2c(NCc3nc(-c4ccccc4)cs3)cc[nH+]c2c1,O,0,0,6.45,['6.45'],['chembl25']
4086,Clc1ccc2c(c1)C(N1CC[NH2+]CC1)=[NH+]c1ccccc1O2,O,0,0,9.935,['9.935'],['chembl25']
4087,Clc1ccc2c(c1)NC1CC=Cc3ccnc-2c31,O,0,0,4.5,['4.5'],['chembl25']
4088,Clc1ccc2n[nH]nc2c1,O,0,0,7.7,['7.7'],['datawarrior']
4089,Clc1ccc2nsnc2c1NC1=[NH+]CCN1,O,0,0,8.0,['8.0'],['chembl25']
4090,Clc1cccc(-c2ccccn2)n1,O,0,0,3.7,['3.7'],['datawarrior']
4091,Clc1cccc(-c2cn[nH]n2)c1,O,0,0,8.32,['8.32'],['chembl25']
4092,Clc1cccc(-c2cn[nH]n2)c1Cl,O,0,0,8.06,['8.06'],['chembl25']
4093,Clc1cccc(-c2nn[n-]n2)c1,O,0,0,3.61,['3.61'],['datawarrior']
4094,Clc1cccc(Br)c1N(CC1CC1)C1=[NH+]CCN1,O,0,0,10.8,['10.8'],['chembl25']
4095,Clc1cccc(Br)c1NC1=[NH+]CCN1,O,0,0,7.93,['7.93'],['chembl25']
4096,Clc1cccc(Cl)c1CON=C1CC[NH+](CCCc2ccccc2)CC1,O,0,0,5.7,['5.7'],['chembl25']
4097,Clc1cccc(Cl)c1N(CC1CC1)C1=[NH+]CCN1,O,0,0,10.9,['10.9'],['chembl25']
4098,Clc1cccc(Cl)c1NC1=[NH+]CCN1,O,0,0,8.055,['8.055'],['chembl25']
4099,Clc1cccc(NC2=[NH+]CCN2)c1Cl,O,0,0,8.55,['8.55'],['chembl25']
4100,Clc1cccc(Nc2c3ccccc3nc3ccccc23)c1,O,0,0,6.76,['6.76'],['chembl25']
4101,Clc1ccccc1-c1cn[nH]n1,O,0,0,8.5,['8.5'],['chembl25']
4102,Clc1ccccc1-c1nn[n-]n1,O,0,0,3.69,['3.69'],['datawarrior']
4103,Clc1ccccc1CN(Cc1nn[n-]n1)c1ccccc1,O,0,0,4.34,['4.34'],['chembl25']
4104,Clc1ccccc1NC1=[NH+]CCN1,O,0,0,9.15,['9.15'],['chembl25']
4105,Clc1ccccc1Nc1c2ccccc2nc2ccccc12,O,0,0,6.55,['6.55'],['chembl25']
4106,Clc1cccnc1,O,0,0,2.77,['2.77'],['datawarrior']
4107,Clc1ccnc(-c2ccccn2)c1,O,0,0,3.8,['3.8'],['datawarrior']
4108,Clc1cnc2c(ccc3cccnc32)c1,O,0,0,3.99,['3.99'],['datawarrior']
4109,Clc1ncnc2nc[nH]c12,O,0,0,7.75,['7.75'],['datawarrior']
4110,Clc1nn[n-]n1,O,0,0,2.07,['2.07'],['datawarrior']
4111,Cn1/c(=N\N)sc2ccccc21,O,0,0,6.1,['6.1'],['datawarrior']
4112,Cn1/c(=[NH+]/N)ccc2ccccc21,O,0,0,9.17,['9.17'],['datawarrior']
4113,Cn1c(=O)[nH]c2ncn(C)c2c1=O,O,0,0,8.65,['8.65'],['datawarrior']
4114,Cn1c(=O)c2[nH]cnc2n(C)c1=O,O,0,0,7.71,['7.71'],"['datawarrior', 'chembl25']"
4115,Cn1c(=O)c2c([nH]c(=O)n2C)n(C)c1=O,O,0,0,6.0,['6.0'],['datawarrior']
4116,Cn1c(=O)c2c(nc3n(CCC[NH+]4CCN(c5cccc(Cl)c5)CC4)c(-c4ccccc4)cn23)n(C)c1=O,O,0,0,10.61,['10.61'],['chembl25']
4117,Cn1c(=O)c2c(nc3n(CCC[NH+]4CCN(c5cccc(Cl)c5)CC4)ccn23)n(C)c1=O,O,0,0,8.35,['8.35'],['chembl25']
4118,Cn1c(=O)c2c(nc3n(CCC[NH+]4CCN(c5ccccc5)CC4)c(-c4ccccc4)cn23)n(C)c1=O,O,0,0,8.79,['8.79'],['chembl25']
4119,Cn1c(=O)c2c(nc3n(CCC[NH+]4CCN(c5ccccc5)CC4)ccn23)n(C)c1=O,O,0,0,8.09,['8.09'],['chembl25']
4120,Cn1c(=O)c2c(nc3n(CCC[NH+]4CCc5ccccc5C4)c(-c4ccccc4)cn23)n(C)c1=O,O,0,0,10.41,['10.41'],['chembl25']
4121,Cn1c(=O)c2c(ncn2CC(=O)[O-])n(C)c1=O,O,0,0,4.48,['4.48'],['datawarrior']
4122,Cn1c(=O)c2cn[nH]c2n(C)c1=O,O,0,0,9.26,['9.26'],['datawarrior']
4123,Cn1c(=O)n(C)c2c(N)cccc21,O,0,0,3.06,['3.06'],['datawarrior']
4124,Cn1c(=O)nc2sc(S(N)(=O)=O)nn2c1=O,O,0,0,7.3,['7.3'],['chembl25']
4125,Cn1c(=S)[nH]c2cc3c(cc21)CCCC3,O,0,0,10.78,['10.78'],['datawarrior']
4126,Cn1c(=S)[nH]c2cncnc21,O,0,0,7.48,['7.48'],['datawarrior']
4127,Cn1c(CO)nc2ccccc21,O,0,0,4.36,['4.36'],['datawarrior']
4128,Cn1c(N)nc2cc[nH]c2c1=O,O,0,0,5.1,['5.1'],['chembl25']
4129,Cn1c(N)nc2nc[nH]c2c1=O,O,0,0,10.43,['10.43'],['datawarrior']
4130,Cn1c2c(s/c1=N\N)CCCC2,O,0,0,8.2,['8.2'],['datawarrior']
4131,Cn1c2ccccc2c(=[NH2+])c2ccccc21,O,0,0,11.01,['11.01'],['datawarrior']
4132,Cn1cc(-c2cccc(C(F)(F)F)c2)c2sc(C(N)=[NH+]C3CCS(=O)(=O)CC3)cc2c1=O,O,0,0,8.4,['8.4'],['chembl25']
4133,Cn1cc(-c2noc(C3=CCC[NH+](C)C3)n2)c2ccccc21,O,0,0,7.2,['7.2'],['chembl25']
4134,Cn1cc(-c2noc(C3=CCC[NH2+]C3)n2)c2ccccc21,O,0,0,7.9,['7.9'],['chembl25']
4135,Cn1cc(-c2noc(CC[NH+](C)C)n2)c2ccccc21,O,0,0,7.7,['7.7'],['chembl25']
4136,Cn1cc(-c2noc(C[NH+](C)C)n2)c2ccccc21,O,0,0,5.6,['5.6'],['chembl25']
4137,Cn1cc(-c2noc(C[NH3+])n2)c2ccccc21,O,0,0,6.4,['6.4'],['chembl25']
4138,Cn1cc(N)cc1C(=O)[O-],O,0,0,5.25,['5.25'],['datawarrior']
4139,Cn1cc(NC(=O)c2cc(NC(=O)c3cc(NC=O)cn3C)cn2C)cc1C(=O)NCCC[NH+](C)C,O,0,0,9.5,['9.5'],['chembl25']
4140,Cn1cc([C@H]2C[C@H]3[C@@H](CF)SC(N)=[NH+][C@@]3(c3ccc(F)cc3F)CO2)cn1,O,0,0,7.2,['7.2'],['chembl25']
4141,Cn1ccc(=O)c2ccccc21,O,0,0,2.36,['2.36'],['datawarrior']
4142,Cn1ccc(N)n1,O,0,0,3.81,['3.81'],['datawarrior']
4143,Cn1ccc2c(Nc3cccc(Cl)c3)ncc(C(=O)N3CCOCC3)c21,O,0,0,6.1,['6.1'],['chembl25']
4144,Cn1ccc2ccc3cccnc3c21,O,0,0,4.36,['4.36'],['datawarrior']
4145,Cn1cccc1-c1cccnc1,O,0,0,4.643333,['4.643333'],"['datawarrior', 'chembl25']"
4146,Cn1cccc1C(=O)[O-],O,0,0,4.51,['4.51'],['datawarrior']
4147,Cn1cccn1,O,0,0,2.48,['2.48'],['datawarrior']
4148,Cn1ccnc1,O,0,0,7.0975,['7.0975'],"['datawarrior', 'chembl25']"
4149,Cn1ccnc1-c1ccccn1,O,0,0,5.7,['5.7'],['datawarrior']
4150,Cn1ccnc1Br,O,0,0,3.82,['3.82'],['chembl25']
4151,Cn1ccnc1F,O,0,0,2.3,['2.3'],['chembl25']
4152,Cn1ccnc1N,O,0,0,8.54,['8.54'],['chembl25']
4153,Cn1cnc(NN=O)n1,O,0,0,5.48,['5.48'],['datawarrior']
4154,Cn1cnc2[nH]c(=O)[nH]c(=O)c21,O,0,0,9.525,['9.525'],['datawarrior']
4155,Cn1cnc2[nH]c(=O)[nH]c(=S)c21,O,0,0,6.8,['6.8'],['datawarrior']
4156,Cn1cnc2c(=O)[nH]c(=O)[nH]c21,O,0,0,8.325,['8.325'],['datawarrior']
4157,Cn1cnc2c(=O)[nH]c(N)nc21,O,0,0,9.92,['9.92'],['datawarrior']
4158,Cn1cnc2c(=O)[nH]cnc21,O,0,0,9.11,['9.11'],['datawarrior']
4159,Cn1cnc2c1c(=O)[nH]c(=O)n2C,O,0,0,9.92,['9.92'],['datawarrior']
4160,Cn1cnc2cc(N)ccc21,O,0,0,4.69,['4.69'],['datawarrior']
4161,Cn1cnc2cccc(N)c21,O,0,0,5.79,['5.79'],['datawarrior']
4162,Cn1cnc2ccccc21,O,0,0,5.625,['5.625'],"['datawarrior', 'chembl25']"
4163,Cn1cnc2cnc(=O)[nH]c21,O,0,0,9.19,['9.19'],['datawarrior']
4164,Cn1cnc2nc(N)[nH]c(=O)c21,O,0,0,8.43,['8.43'],['datawarrior']
4165,Cn1cnc2nc[nH]c(=O)c21,O,0,0,8.8,['8.8'],['datawarrior']
4166,Cn1cnc2ncncc21,O,0,0,2.29,['2.29'],['datawarrior']
4167,Cn1cncc1C1CCN(C(=O)CCS(=O)(=O)c2ccc3cc(Cl)ccc3c2)CC1,O,0,0,7.2,['7.2'],['chembl25']
4168,Cn1cncn1,O,0,0,2.31,['2.31'],['datawarrior']
4169,Cn1nc(C(=O)NC2CC3CCCC(C2)[NH+]3C)c2ccccc21,O,0,0,9.0,['9.0'],['chembl25']
4170,Cn1nc(Cl)nc1NN=O,O,0,0,4.03,['4.03'],['datawarrior']
4171,Cn1nc(NN=O)nc1N1CCCCC1,O,0,0,5.46,['5.46'],['datawarrior']
4172,Cn1nc(S(N)(=O)=O)s/c1=N\C(=O)C(F)(F)F,O,0,0,6.6,['6.6'],['chembl25']
4173,Cn1ncc2c(=O)[nH]cnc21,O,0,0,9.26,['9.26'],['datawarrior']
4174,Cn1ncc2c(N)ncnc21,O,0,0,4.32,['4.32'],['datawarrior']
4175,Cn1ncc2c(NC(C)(C)CC(C)(C)C)ncnc21,O,0,0,3.96,['3.96'],['datawarrior']
4176,Cn1ncc2c(NCCO)ncnc21,O,0,0,3.86,['3.86'],['datawarrior']
4177,Cn1ncc2c(NCc3ccccc3)ncnc21,O,0,0,3.66,['3.66'],['datawarrior']
4178,Cn1ncc2c(NCc3ccco3)ncnc21,O,0,0,3.8,['3.8'],['datawarrior']
4179,Cn1ncc2c(Nc3ccccc3)ncnc21,O,0,0,3.53,['3.53'],['datawarrior']
4180,Cn1ncc2cncnc21,O,0,0,2.5,['2.5'],['datawarrior']
4181,Cn1nccc1-c1cc(Cl)ccc1Oc1cc(F)c(S(=O)(=O)Nc2ncns2)cc1F,O,0,0,3.5,['3.5'],['chembl25']
4182,Cn1nccc1-c1cc(Cl)ccc1Oc1cc(F)c(S(=O)(=O)Nc2nncs2)cc1Cl,O,0,0,4.5,['4.5'],['chembl25']
4183,Cn1nccc1-c1cc(Cl)ccc1Oc1ccc(S(=O)(=O)Nc2ncns2)cc1C#N,O,0,0,3.5,['3.5'],['chembl25']
4184,Cn1nccc1-c1cc(Cl)ccc1Oc1ccc(S(=O)(=O)Nc2ncns2)cc1F,O,0,0,3.5,['3.5'],['chembl25']
4185,Cn1nccc1-c1cc(Cl)ccc1Oc1ccc(S(=O)(=O)Nc2nncs2)cc1C#N,O,0,0,4.5,['4.5'],['chembl25']
4186,Cn1nccc1N,O,0,0,4.23,['4.23'],['datawarrior']
4187,Cn1ncnc1NN=O,O,0,0,4.45,['4.45'],['datawarrior']
4188,Cn1nnc(CC(=O)[O-])n1,O,0,0,3.44,['3.44'],['datawarrior']
4189,Cn1nnnc1CC(=O)[O-],O,0,0,2.83,['2.83'],['datawarrior']
4190,Cn1nnnc1Cc1ncc(Cl)cc1NS(=O)(=O)c1ccc(Cl)c(Cl)c1,O,0,0,4.7,['4.7'],['chembl25']
4191,FC(Cc1c[nH]c2ccc(-n3cnnc3)cc12)C[NH+]1CCC(Cc2ccccc2)CC1,O,0,0,8.7,['8.7'],['chembl25']
4192,FC(F)(Cc1c[nH]c2ccc(-n3cnnc3)cc12)CN1CCC(Cc2ccccc2)CC1,O,0,0,6.7,['6.7'],['chembl25']
4193,FC(F)(Cc1c[nH]c2ccc(-n3cnnc3)cc12)CN1CCC(OCc2ccccc2)CC1,O,0,0,5.9,['5.9'],['chembl25']
4194,FC(F)(F)c1c(N2CCC(c3ccccc3)CC2)ccn2c(CC3CC3)nnc12,O,0,0,4.1,['4.1'],['chembl25']
4195,FC(F)(F)c1cc(-c2ccccc2)nnc1NCC[NH+]1CCOCC1,O,0,0,6.75,['6.75'],['datawarrior']
4196,FC(F)(F)c1cc(C(F)(F)F)[nH]n1,O,0,0,7.51,['7.51'],['datawarrior']
4197,FC(F)(F)c1ccc2cccnc2c1,O,0,0,3.16,['3.16'],['datawarrior']
4198,FC(F)(F)c1cccc(NC=S)c1,O,0,0,10.78,['10.78'],['datawarrior']
4199,FC(F)(F)c1cccc2ncccc12,O,0,0,3.09,['3.09'],['datawarrior']
4200,FC(F)(F)c1ccccc1NC1=[NH+]CCN1,O,0,0,8.8,['8.8'],['chembl25']
4201,FC(F)(F)c1nc2ncncc2[nH]1,O,0,0,5.12,['5.12'],['datawarrior']
4202,FC(F)(F)c1ncnc2nc[nH]c12,O,0,0,7.35,['7.35'],['datawarrior']
4203,FC(F)C1Cc2ccc(Br)cc2CN1,O,0,0,6.12,['6.12'],['chembl25']
4204,FC(F)C1Cc2ccccc2CN1,O,0,0,6.42,['6.42'],['chembl25']
4205,FC1(Cc2ccccc2)CC[NH+](CCCc2c[nH]c3ccc(-n4cnnc4)cc23)CC1,O,0,0,8.8,['8.8'],['chembl25']
4206,FC1(F)CCCNC1,O,0,0,7.4,['7.4'],['chembl25']
4207,FC1(F)CC[NH2+]CC1,O,0,0,8.5,['8.5'],['chembl25']
4208,FC1CCC[NH2+]C1,O,0,0,9.3,['9.3'],['chembl25']
4209,FC1CC[NH2+]CC1,O,0,0,9.4,['9.4'],['chembl25']
4210,FCCc1noc(C2=CCC[NH2+]C2)n1,O,0,0,8.29,['8.29'],['chembl25']
4211,Fc1c(NC2CC2)nc(C2CC2)nc1N1CCCCCC1,O,0,0,6.44,['6.44'],['chembl25']
4212,Fc1c(NC2CC2)nc(C2CC2)nc1N1CCSCC1,O,0,0,5.27,['5.27'],['chembl25']
4213,Fc1cc(-c2cn[nH]n2)ccn1,O,0,0,7.59,['7.59'],['chembl25']
4214,Fc1cc(F)c(F)c([S-])c1F,O,0,0,2.75,['2.75'],['datawarrior']
4215,Fc1ccc(C(c2ccc(F)cc2)N2CC[NH+](C/C=C/c3ccccc3)CC2)cc1,O,0,0,7.71,['7.71'],['chembl25']
4216,Fc1ccc(CN(Cc2nn[n-]n2)c2ccccc2)c(F)c1,O,0,0,4.13,['4.13'],['chembl25']
4217,Fc1ccc(CN(Cc2nn[n-]n2)c2ccccc2)cc1,O,0,0,4.2,['4.2'],['chembl25']
4218,Fc1ccc(N2CC[NH+](Cc3ccn4c(CC5CC5)nnc4c3C(F)(F)F)CC2)c(F)c1,O,0,0,5.0,['5.0'],['chembl25']
4219,Fc1ccc(NC(=S)c2ccc(Cl)cc2)cc1,O,0,0,10.41,['10.41'],['datawarrior']
4220,Fc1ccc(NC(=S)c2cccc(Br)c2)cc1,O,0,0,10.32,['10.32'],['datawarrior']
4221,Fc1ccc(NC(=S)c2ccccc2)cc1,O,0,0,10.77,['10.77'],['datawarrior']
4222,Fc1ccc(NC=S)cc1,O,0,0,11.25,['11.25'],['datawarrior']
4223,Fc1ccc(Nc2c3ccccc3nc3ccccc23)cc1,O,0,0,7.5,['7.5'],['chembl25']
4224,Fc1ccc([C@@H]2CC[NH2+]C[C@H]2COc2ccc3c(c2)OCO3)cc1,O,0,0,9.843333,['9.843333'],['chembl25']
4225,Fc1ccc([S-])cc1,O,0,0,6.35,['6.35'],['datawarrior']
4226,Fc1ccc2c(c1)N(CCC[NH+]1CCCC1)c1cc(F)ccc1CC2,O,0,0,7.75,['7.75'],['chembl25']
4227,Fc1ccc2c(c1)N(CCC[NH+]1CCCCC1)c1cc(F)ccc1CC2,O,0,0,7.6,['7.6'],['chembl25']
4228,Fc1ccc2c(c1)N(CCC[NH+]1CCOCC1)c1cc(F)ccc1CC2,O,0,0,7.6,['7.6'],['chembl25']
4229,Fc1ccc2cccnc2c1,O,0,0,4.04,['4.04'],['chembl25']
4230,Fc1ccc2ncccc2c1,O,0,0,4.0,['4.0'],['chembl25']
4231,Fc1cccc(-c2cn[nH]n2)c1,O,0,0,8.38,['8.38'],['chembl25']
4232,Fc1cccc(Br)c1N(CC1CC1)C1=[NH+]CCN1,O,0,0,10.7,['10.7'],['chembl25']
4233,Fc1cccc(C(F)(F)F)c1N(CC1CC1)C1=[NH+]CCN1,O,0,0,10.7,['10.7'],['chembl25']
4234,Fc1cccc(CN(Cc2nn[n-]n2)c2ccccc2)c1,O,0,0,4.19,['4.19'],['chembl25']
4235,Fc1cccc(Cl)c1N(CC1CC1)C1=[NH+]CCN1,O,0,0,10.8,['10.8'],['chembl25']
4236,Fc1cccc(Cl)c1NC1=[NH+]CCN1,O,0,0,8.01,['8.01'],['chembl25']
4237,Fc1cccc(F)c1N(CC1CC1)C1=[NH+]CCN1,O,0,0,10.3,['10.3'],['chembl25']
4238,Fc1cccc(F)c1NC1=[NH+]CCN1,O,0,0,8.253333,['8.253333'],['chembl25']
4239,Fc1cccc(NC(=S)c2ccc(Cl)cc2)c1,O,0,0,10.16,['10.16'],['datawarrior']
4240,Fc1cccc(NC(=S)c2cccc(Br)c2)c1,O,0,0,10.01,['10.01'],['datawarrior']
4241,Fc1cccc(NC(=S)c2ccccc2)c1,O,0,0,10.29,['10.29'],['datawarrior']
4242,Fc1cccc(NC=S)c1,O,0,0,10.89,['10.89'],['datawarrior']
4243,Fc1cccc2[nH]cnc12,O,0,0,4.4,['4.4'],['datawarrior']
4244,Fc1cccc2ncccc12,O,0,0,3.68,['3.68'],['chembl25']
4245,Fc1ccccc1CN(Cc1nn[n-]n1)c1ccccc1,O,0,0,4.22,['4.22'],['chembl25']
4246,Fc1ccccc1Nc1c2ccccc2nc2ccccc12,O,0,0,6.84,['6.84'],['chembl25']
4247,Fc1cccn2ccnc12,O,0,0,4.9,['4.9'],['chembl25']
4248,Fc1cccnc1,O,0,0,2.97,['2.97'],"['datawarrior', 'chembl25']"
4249,Ic1ccc(-c2nn[n-]n2)cc1,O,0,0,3.88,['3.88'],['datawarrior']
4250,Ic1ccc(Nc2c3ccccc3nc3ccccc23)cc1,O,0,0,6.9,['6.9'],['chembl25']
4251,Ic1cccc(C2[NH2+]CCS2)c1,O,0,0,4.93,['4.93'],['datawarrior']
4252,Ic1ccccc1Nc1c2ccccc2nc2ccccc12,O,0,0,6.47,['6.47'],['chembl25']
4253,Ic1cccnc1,O,0,0,3.25,['3.25'],['datawarrior']
4254,Ic1nn[n-]n1,O,0,0,2.85,['2.85'],['datawarrior']
4255,N#CC(=Nc1ccc(C(=O)[O-])cc1)C(C#N)C#N,O,0,0,4.2,['4.2'],['datawarrior']
4256,N#CC(C#N)=C(Br)C(C#N)C#N,O,0,0,2.6,['2.6'],['datawarrior']
4257,N#CC(C#N)=C(c1ccccc1)C(C#N)C#N,O,0,0,2.3,['2.3'],['datawarrior']
4258,N#CC(C#N)Cc1ccc(Cl)cc1,O,0,0,11.49,['11.49'],['datawarrior']
4259,N#CC(C#N)N=Nc1cccc(O)c1,O,0,0,6.45,['6.45'],['datawarrior']
4260,N#CC(C#N)N=Nc1ccccc1C(=O)[O-],O,0,0,6.7,['6.7'],['datawarrior']
4261,N#CC(C#N)N=Nc1ccccc1O,O,0,0,6.1,['6.1'],['datawarrior']
4262,N#CC(C(=O)[O-])C1CCCCC1,O,0,0,2.37,['2.37'],['datawarrior']
4263,N#CC(CC(=O)[O-])Cc1ccccc1,O,0,0,3.91,['3.91'],['datawarrior']
4264,N#CC(CC(=O)[O-])c1ccccc1,O,0,0,3.79,['3.79'],['datawarrior']
4265,N#CC(CCC(=O)[O-])c1ccccc1,O,0,0,4.4,['4.4'],['datawarrior']
4266,N#CC(CCCC(=O)[O-])c1ccccc1,O,0,0,4.64,['4.64'],['datawarrior']
4267,N#CC(CCCCC(=O)[O-])c1ccccc1,O,0,0,4.75,['4.75'],['datawarrior']
4268,N#CC(CC[NH+]1CCCCC1)(c1ccccc1)c1ccccc1,O,0,0,8.07,['8.07'],['datawarrior']
4269,N#CC(CC[NH+]1CCOCC1)(c1ccccc1)c1ccccc1,O,0,0,6.09,['6.09'],['datawarrior']
4270,N#CC(Cc1ccccc1)C(=O)[O-],O,0,0,2.24,['2.24'],['datawarrior']
4271,N#CC(N)c1ccccc1,O,0,0,4.4,['4.4'],['datawarrior']
4272,N#CC(c1ccc2c(c1)OCO2)N1CCCC1,O,0,0,4.3,['4.3'],['chembl25']
4273,N#CC(c1ccc2c(c1)OCO2)N1CCCCC1,O,0,0,4.0,['4.0'],['chembl25']
4274,N#CC1=C[NH+]2CCC1CC2,O,0,0,5.84,['5.84'],['datawarrior']
4275,N#CC1CC2CCN1CC2,O,0,0,5.85,['5.85'],['datawarrior']
4276,N#CC1CN2CCC1CC2,O,0,0,7.85,['7.85'],['datawarrior']
4277,N#CCC#N,O,0,0,11.19,['11.19'],['datawarrior']
4278,N#CCC(=O)[O-],O,0,0,2.46,['2.46'],['datawarrior']
4279,N#CCC(C(=O)[O-])c1ccccc1,O,0,0,3.44,['3.44'],['datawarrior']
4280,N#CCC(N)c1ccccc1,O,0,0,6.7,['6.7'],['datawarrior']
4281,N#CCCC(=O)[O-],O,0,0,3.98,['3.98'],['datawarrior']
4282,N#CCCC(C(=O)[O-])c1ccccc1,O,0,0,3.92,['3.92'],['datawarrior']
4283,N#CCCCOc1ccc(-c2ccc(-c3ccccc3Cl)n2Cc2cccc(N)n2)cc1,O,0,0,6.86,['6.86'],['chembl25']
4284,N#CCCN,O,0,0,7.75,['7.75'],['datawarrior']
4285,N#CCCN(CCC#N)c1nn[n-]n1,O,0,0,4.85,['4.85'],['datawarrior']
4286,N#CCCNCCC#N,O,0,0,5.23,['5.23'],['datawarrior']
4287,N#CCCNN,O,0,0,5.91,['5.91'],['datawarrior']
4288,N#CCCNc1ccccc1,O,0,0,4.5,['4.5'],['datawarrior']
4289,N#CCC[NH2+]C(CC(N)=O)C(=O)[O-],O,0,0,6.46,['6.46'],['datawarrior']
4290,N#CCN,O,0,0,5.37,['5.37'],['datawarrior']
4291,N#CCN1CCCCC1,O,0,0,4.55,['4.55'],['datawarrior']
4292,N#CCN1CCOCC1,O,0,0,2.0,['2.0'],['datawarrior']
4293,N#CCc1ccc(C(=O)[O-])cc1,O,0,0,4.09,['4.09'],['datawarrior']
4294,N#CCc1cccnc1,O,0,0,3.78,['3.78'],['datawarrior']
4295,N#CNS(=O)(=O)c1ccc(N)cc1,O,0,0,2.92,['2.92'],['chembl25']
4296,N#CSc1cc(C(=O)[O-])ccc1N,O,0,0,4.52,['4.52'],['chembl25']
4297,N#CSc1ccc(O)cc1,O,0,0,8.57,['8.57'],['datawarrior']
4298,N#C[C@H](Cc1ccc(-c2ccccc2)cc1)NC(=O)C1([NH3+])CCOCC1,O,0,0,5.4,['5.4'],['chembl25']
4299,N#C[C@H]1CCCC[C@@H]1C(=O)[O-],O,0,0,3.86,['3.86'],['datawarrior']
4300,N#Cc1c(-c2nc3cc(Cl)ccc3o2)c(=O)oc2cc(O)ccc12,O,0,0,6.0,['6.0'],['datawarrior']
4301,N#Cc1c(-c2nc3ccccc3o2)c(=O)oc2cc(O)ccc12,O,0,0,6.07,['6.07'],['datawarrior']
4302,N#Cc1c(-c2nc3ccccc3s2)c(=O)oc2cc(O)ccc12,O,0,0,6.38,['6.38'],['datawarrior']
4303,N#Cc1c(C2CC2)nc(SCc2cccc(F)c2F)[nH]c1=O,O,0,0,8.9,['8.9'],['chembl25']
4304,N#Cc1c(C[NH+]2CCC(Br)CC2)no[n+]1[O-],O,0,0,4.01,['4.01'],['chembl25']
4305,N#Cc1cc(-c2ccccc2)nnc1NCC[NH+]1CCOCC1,O,0,0,6.5,['6.5'],['datawarrior']
4306,N#Cc1cc(C(F)(F)F)ccc1N1CCOc2cc(S(=O)(=O)Nc3nccs3)ccc21,O,0,0,7.0,['7.0'],['chembl25']
4307,N#Cc1cc(C(F)(F)F)ccc1N1CCOc2cc(S(=O)(=O)Nc3ncns3)ccc21,O,0,0,3.8,['3.8'],['chembl25']
4308,N#Cc1cc(NS(=O)(=O)c2ccccc2C(F)(F)F)ccc1C(F)(F)F,O,0,0,5.1,['5.1'],['chembl25']
4309,N#Cc1cc(NS(=O)(=O)c2ccccc2C(F)(F)F)ccc1Cl,O,0,0,5.8,['5.8'],['chembl25']
4310,N#Cc1cc(S(=O)(=O)Nc2ccc(F)cn2)ccc1Oc1ccc(CO)c(Cl)c1,O,0,0,5.7,['5.7'],['chembl25']
4311,N#Cc1cc2[nH]cc(C(=O)[O-])c2cc1-c1ccc(C2(O)CCC2)cc1,O,0,0,4.6,['4.6'],['chembl25']
4312,N#Cc1ccc(-c2ccc(C[C@@H](C#N)NC(=O)C3([NH3+])CCCCC3)cc2)cc1,O,0,0,7.1,['7.1'],['chembl25']
4313,N#Cc1ccc(-c2ccc(C[C@@H](C#N)NC(=O)C3([NH3+])CCOCC3)cc2)cc1,O,0,0,5.8,['5.8'],['chembl25']
4314,N#Cc1ccc(-c2ccc(C[C@@H](C#N)NC(=O)[C@@H]3CCCC[NH2+]3)cc2)cc1,O,0,0,8.4,['8.4'],['chembl25']
4315,N#Cc1ccc(-c2ccc(C[C@@H](C#N)NC(=O)[C@@H]3C[C@@H](O)CC[NH2+]3)cc2)cc1,O,0,0,7.6,['7.6'],['chembl25']
4316,N#Cc1ccc(-c2nn[n-]n2)cc1,O,0,0,3.53,['3.53'],['datawarrior']
4317,N#Cc1ccc(C(=O)Nc2ccc(F)c([C@@]3(CF)[NH+]=C(N)OCC3(F)F)c2)nc1,O,0,0,5.1,['5.1'],['chembl25']
4318,N#Cc1ccc(C(=O)Nc2ccc(F)c([C@@]3(CF)[NH+]=C(N)OC[C@@H]3F)c2)nc1,O,0,0,6.7,['6.7'],['chembl25']
4319,N#Cc1ccc(C(=O)Nc2ccc(F)c([C@]3(C(F)F)CCOC(N)=[NH+]3)c2)nc1,O,0,0,7.3,['7.3'],['chembl25']
4320,N#Cc1ccc(C(=O)Nc2ccc(F)c([C@]3(CF)C[C@@H](C(F)(F)F)OC(N)=[NH+]3)c2)nc1,O,0,0,6.3,['6.3'],['chembl25']
4321,N#Cc1ccc(C(=O)[O-])cc1,O,0,0,3.53,['3.53'],['datawarrior']
4322,N#Cc1ccc(CC(C#N)C#N)cc1,O,0,0,10.96,['10.96'],['datawarrior']
4323,N#Cc1ccc(C[NH3+])cc1,O,0,0,8.72,['8.72'],['datawarrior']
4324,N#Cc1ccc(Cc2c3ccccc3nc3ccccc23)cc1,O,0,0,5.93,['5.93'],['chembl25']
4325,N#Cc1ccc(N2CC[NH+](CCNC(=O)c3ccc(F)cc3)CC2)cc1,O,0,0,6.43,['6.43'],['chembl25']
4326,N#Cc1ccc(NC(=O)c2ccc(S(=O)(=O)N3CCOCC3)cc2)c(C(=O)[O-])c1,O,0,0,2.56,['2.56'],['chembl25']
4327,N#Cc1ccc(NS(=O)(=O)c2ccccc2)cc1,O,0,0,6.78,['6.78'],['datawarrior']
4328,N#Cc1ccc(NS(=O)(=O)c2ccccc2C(F)(F)F)cc1Cl,O,0,0,5.1,['5.1'],['chembl25']
4329,N#Cc1ccc(Nc2c3ccccc3nc3ccccc23)cc1,O,0,0,5.93,['5.93'],['chembl25']
4330,N#Cc1ccc(Nc2nc(N)nc(Cc3c(Cl)ccc(Cl)c3Cl)n2)cc1,O,0,0,2.8,['2.8'],['chembl25']
4331,N#Cc1ccc(Nc2nc(N)nc(Cc3c(Cl)ccc4[nH]ccc34)n2)cc1,O,0,0,3.3,['3.3'],['chembl25']
4332,N#Cc1ccc(Nc2nc(N)nc(Cc3c(Cl)cccc3Cl)n2)cc1,O,0,0,3.1,['3.1'],['chembl25']
4333,N#Cc1ccc(O[C@H]2O[C@@H](C(=O)[O-])[C@H](O)[C@@H](O)[C@@H]2O)cc1,O,0,0,3.22,['3.22'],['datawarrior']
4334,N#Cc1ccc(Oc2ccc(S(=O)(=O)Nc3ccc(F)cn3)cc2C#N)cc1Cl,O,0,0,5.8,['5.8'],['chembl25']
4335,N#Cc1ccc(S(=O)(=O)C2(F)CC[NH+](CCc3ccc(F)cc3F)CC2)cc1,O,0,0,6.4,['6.4'],['chembl25']