,Solute SMILES,Solvent SMILES,Solute CAS,Solute IUPAC,pKa (avg),pKa (all),Source
5741,[NH3+]C12CCC(CC1)C2,O,0,0,10.19,['10.19'],['datawarrior']
5742,[NH3+]C1CC1,O,0,0,9.1,['9.1'],['datawarrior']
5743,[NH3+]C1CCCCC1,O,0,0,10.67,['10.67'],['datawarrior']
5744,[NH3+]C1CCCc2ccccc21,O,0,0,9.66,['9.66'],['datawarrior']
5745,[NH3+]C1CCN(OCc2ccccc2)C1=O,O,0,0,6.4,['6.4'],['chembl25']
5746,[NH3+]C1CCc2ccccc2C1,O,0,0,9.97,['9.97'],['datawarrior']
5747,[NH3+]C1Cc2ccccc2C1,O,0,0,9.55,['9.55'],['datawarrior']
5748,[NH3+]C1OC(CO)C(O)C(O)C1O,O,0,0,5.6,['5.6'],['chembl25']
5749,[NH3+]C1OCC(O)C(O)C1O,O,0,0,5.6,['5.6'],['chembl25']
5750,[NH3+]CC(=O)Nc1ccccc1,O,0,0,8.12,['8.12'],['datawarrior']
5751,[NH3+]CC(N=O)c1ccc(Sc2cc(F)cc(C3CCOCC3)c2)cc1,O,0,0,11.5,['11.5'],['chembl25']
5752,[NH3+]CC(O)CO,O,0,0,9.3,['9.3'],['datawarrior']
5753,[NH3+]CC(O)c1ccc(Cl)cc1,O,0,0,9.04,['9.04'],['datawarrior']
5754,[NH3+]CC(O)c1ccccc1,O,0,0,8.94,['8.94'],['datawarrior']
5755,[NH3+]CC1CCCCC1,O,0,0,10.52,['10.52'],['datawarrior']
5756,[NH3+]CC=C(Cl)Cl,O,0,0,9.3,['9.3'],['datawarrior']
5757,[NH3+]CCBr,O,0,0,8.5,['8.5'],['datawarrior']
5758,[NH3+]CCC(=O)c1ccccc1,O,0,0,8.3,['8.3'],['datawarrior']
5759,[NH3+]CCC=C(Cl)Cl,O,0,0,9.85,['9.85'],['datawarrior']
5760,[NH3+]CCCBr,O,0,0,8.93,['8.93'],['datawarrior']
5761,[NH3+]CCCC(F)(F)F,O,0,0,9.7,['9.7'],['chembl25']
5762,[NH3+]CCCCBr,O,0,0,10.0,['10.0'],['datawarrior']
5763,[NH3+]CCCCCCBr,O,0,0,10.6,['10.6'],['datawarrior']
5764,[NH3+]CCCCCCO,O,0,0,10.62,['10.62'],['datawarrior']
5765,[NH3+]CCCCCO,O,0,0,10.52,['10.52'],['datawarrior']
5766,[NH3+]CCCCCc1ccccc1,O,0,0,10.51,['10.51'],['datawarrior']
5767,[NH3+]CCCCO,O,0,0,10.35,['10.35'],['datawarrior']
5768,[NH3+]CCCCOc1c2ccccc2cc2ccccc12,O,0,0,9.94,['9.94'],['datawarrior']
5769,[NH3+]CCCCc1ccccc1,O,0,0,10.39,['10.39'],['datawarrior']
5770,[NH3+]CCCCl,O,0,0,9.89,['9.89'],['datawarrior']
5771,[NH3+]CCCF,O,0,0,9.9,['9.9'],['chembl25']
5772,[NH3+]CCCO,O,0,0,10.0,['10.0'],['datawarrior']
5773,[NH3+]CCC[n+]1cc(Br)c2ccccc2c1,O,0,0,9.53,['9.53'],['datawarrior']
5774,[NH3+]CCC[n+]1ccc2ccccc2c1,O,0,0,8.97,['8.97'],['datawarrior']
5775,[NH3+]CCCc1ccccc1,O,0,0,10.27,['10.27'],['datawarrior']
5776,[NH3+]CCCl,O,0,0,8.49,['8.49'],['datawarrior']
5777,[NH3+]CCF,O,0,0,8.895,['8.895'],"['datawarrior', 'chembl25']"
5778,[NH3+]CCN1C(=O)C=NC(c2ccccc2F)c2cc(Cl)ccc21,O,0,0,11.6,['11.6'],['chembl25']
5779,[NH3+]CCNC(=O)c1ccccc1,O,0,0,9.13,['9.13'],['datawarrior']
5780,[NH3+]CCO,O,0,0,9.525,['9.525'],"['datawarrior', 'chembl25']"
5781,[NH3+]CCOCCO,O,0,0,9.43,['9.43'],['datawarrior']
5782,[NH3+]CCc1c[nH]c2ccccc12,O,0,0,10.2,['10.2'],['datawarrior']
5783,[NH3+]CCc1ccc(Br)cc1,O,0,0,9.65,['9.65'],['datawarrior']
5784,[NH3+]CCc1ccc(Cl)cc1,O,0,0,9.66,['9.66'],['datawarrior']
5785,[NH3+]CCc1ccccc1,O,0,0,9.485,['9.485'],"['datawarrior', 'chembl25']"
5786,[NH3+]C[C@@H]1C[C@@]1(C(=O)N1Cc2ccccc2C1)c1cccs1,O,0,0,9.5,['9.5'],['chembl25']
5787,[NH3+]C[C@H](COCc1cccc2ccccc12)OC(=O)NCCCCCCO,O,0,0,8.9,['8.9'],['chembl25']
5788,[NH3+]C[C@H]1CCCC[C@@H]1O,O,0,0,10.18,['10.18'],['datawarrior']
5789,[NH3+]Cc1ccc(C=O)o1,O,0,0,8.1,['8.1'],['datawarrior']
5790,[NH3+]Cc1ccc(Cl)cc1,O,0,0,9.24,['9.24'],['datawarrior']
5791,[NH3+]Cc1ccccc1,O,0,0,9.48,['9.48'],"['datawarrior', 'chembl25']"
5792,[NH3+][C@@H]1CCCC[C@@H]1O,O,0,0,9.72,['9.72'],['datawarrior']
5793,[NH3+][C@@H]1CCC[C@@H]1O,O,0,0,9.7,['9.7'],['datawarrior']
5794,[NH3+][C@@H]1CCC[C@H](O)C1,O,0,0,10.05,['10.05'],['datawarrior']
5795,[NH3+][C@@H]1C[C@@H]1c1ccccc1,O,0,0,8.47,['8.47'],['chembl25']
5796,[NH3+][C@@H]1C[C@H]1c1ccccc1,O,0,0,8.2,['8.2'],['chembl25']
5797,[NH3+][C@@H]1C[C@]1(F)c1ccc(C(F)(F)F)cc1,O,0,0,6.6,['6.6'],['chembl25']
5798,[NH3+][C@@H]1C[C@]1(F)c1ccc(Cl)cc1,O,0,0,6.81,['6.81'],['chembl25']
5799,[NH3+][C@@H]1C[C@]1(F)c1ccc(F)cc1,O,0,0,6.88,['6.88'],['chembl25']
5800,[NH3+][C@@H]1C[C@]1(F)c1ccccc1,O,0,0,6.98,['6.98'],['chembl25']
5801,[NH3+][C@H](COCc1cc(C(F)(F)F)cc(C(F)(F)F)c1)c1ccccc1,O,0,0,7.93,['7.93'],['chembl25']
5802,[NH3+][C@H](c1ccccc1)[C@H](O)c1ccccc1,O,0,0,10.46,['10.46'],['datawarrior']
5803,[NH3+][C@H]1CCCCC[C@@H]1O,O,0,0,9.35,['9.35'],['datawarrior']
5804,[NH3+][C@H]1CCCC[C@@H]1O,O,0,0,9.35,['9.35'],['datawarrior']
5805,[NH3+][C@H]1CCC[C@@H]1O,O,0,0,9.28,['9.28'],['datawarrior']
5806,[NH3+][C@H]1CCC[C@H](O)C1,O,0,0,10.1,['10.1'],['datawarrior']
5807,[NH3+][C@H]1CCc2ccccc21,O,0,0,9.21,['9.21'],['datawarrior']
5808,[NH3+][C@H]1C[C@@H]1c1ccccc1,O,0,0,8.5,['8.5'],['chembl25']
5809,[NH3+][C@H]1C[C@@]1(F)c1ccccc1,O,0,0,7.2,['7.2'],['chembl25']
5810,[NH3+][C@H]1C[C@]1(F)c1ccc(C(F)(F)F)cc1,O,0,0,7.0,['7.0'],['chembl25']
5811,[NH3+][C@H]1C[C@]1(F)c1ccc(Cl)cc1,O,0,0,7.19,['7.19'],['chembl25']
5812,[NH3+][C@H]1C[C@]1(F)c1ccc(F)cc1,O,0,0,7.31,['7.31'],['chembl25']
5813,[NH3+][C@H]1C[C@]1(F)c1ccccc1,O,0,0,7.35,['7.35'],['chembl25']
5814,[NH3+][C@]1(c2ccccc2)C[C@]1(F)c1ccccc1,O,0,0,5.8,['5.8'],['chembl25']
5815,[O-]Nc1cc[n+]([O-])c2ccccc12,O,0,0,3.89,['3.89'],['datawarrior']
5816,[O-]Nc1ccc(Cl)cc1,O,0,0,2.58,['2.58'],['datawarrior']
5817,[O-]Nc1ccnc2ccccc12,O,0,0,6.76,['6.76'],['datawarrior']
5818,[O-]Nc1ncnc2nc[nH]c12,O,0,0,9.83,['9.83'],['datawarrior']
5819,[O-][n+]1ccc(O)cc1,O,0,0,5.76,['5.76'],['datawarrior']
5820,[O-][n+]1cccc(O)c1,O,0,0,6.4,['6.4'],['datawarrior']
5821,[O-][n+]1ccccc1O,O,0,0,5.98,['5.98'],['datawarrior']
5822,[O-][n+]1cnc(NCc2ccccc2)c2nc[nH]c21,O,0,0,7.27,['7.27'],['datawarrior']
5823,[O-][n+]1cnc2[nH]cnc2c1NCc1ccccc1,O,0,0,8.22,['8.22'],['datawarrior']
5824,[O-]c1c(Br)cccc1Br,O,0,0,6.6,['6.6'],['datawarrior']
5825,[O-]c1c(Cl)c(Cl)c(Cl)c(Cl)c1Cl,O,0,0,5.0,['5.0'],['chembl25']
5826,[O-]c1c(Cl)cc(Cl)c(Cl)c1Cl,O,0,0,5.7,['5.7'],['chembl25']
5827,[O-]c1c(Cl)cc(Cl)cc1Cl,O,0,0,6.2,['6.2'],['chembl25']
5828,[O-]c1c(Cl)ccc(Cl)c1Cl,O,0,0,6.12,['6.12'],['datawarrior']
5829,[O-]c1c(Cl)cccc1Cl,O,0,0,6.975,['6.975'],"['datawarrior', 'chembl25']"
5830,[O-]c1c(F)cc(-c2ccc(O[C@H]3O[C@H](CO)[C@@H](O)[C@H](O)[C@@H]3O)cc2)cc1F,O,0,0,6.5,['6.5'],['chembl25']
5831,[O-]c1c(F)cc(Cc2ccccc2)cc1F,O,0,0,7.19,['7.19'],['chembl25']
5832,[O-]c1c(F)ccc(Cc2ccccc2)c1F,O,0,0,7.05,['7.05'],['chembl25']
5833,[O-]c1c(F)cccc1F,O,0,0,7.12,['7.12'],['chembl25']
5834,[S-]c1ccc(Br)cc1,O,0,0,5.8,['5.8'],['datawarrior']
5835,[S-]c1ccc(Cl)c(Cl)c1,O,0,0,5.48,['5.48'],['datawarrior']
5836,[S-]c1ccc(Cl)cc1,O,0,0,5.82,['5.82'],['datawarrior']
5837,[S-]c1cccc(Cl)c1,O,0,0,5.76,['5.76'],['datawarrior']
5838,[S-]c1ccccc1,O,0,0,6.485,['6.485'],"['datawarrior', 'chembl25']"
5839,c1c[nH]cn1,O,0,0,7.023333,['7.023333'],"['datawarrior', 'chembl25']"
5840,c1cc(-c2ccoc2)ccn1,O,0,0,5.72,['5.72'],['datawarrior']
5841,c1cc(C2CCC3(CC2)CCC2(OC3)C3CC4CC(C3)CC2C4)ccc1OCC[NH+]1CCOCC1,O,0,0,6.82,['6.82'],['chembl25']
5842,c1cc(C2CCC3(CC2)CCC2(OO3)C3CC4CC(C3)CC2C4)ccc1OCC[NH+]1CCOCC1,O,0,0,6.81,['6.81'],['chembl25']
5843,c1cc(CC2CCC[NH2+]C2)c2ccoc2c1,O,0,0,9.8,['9.8'],['chembl25']
5844,c1cc(N2CCOCC2)cc[nH+]1,O,0,0,8.79,['8.79'],['datawarrior']
5845,c1cc(N2CCOCC2)ccc1N1CCCCC1,O,0,0,6.7,['6.7'],['datawarrior']
5846,c1cc(N2CCOCC2)ccc1N1CCOCC1,O,0,0,4.2,['4.2'],['datawarrior']
5847,c1cc([C@H]2CC[C@@]3(CC2)C[C@@]2(OO3)C3CC4CC(C3)CC2C4)ccc1OCC[NH+]1CCOCC1,O,0,0,6.82,['6.82'],['chembl25']
5848,c1cc([C@H]2CC[C@]3(CC2)OO[C@]2(O3)C3CC4CC(C3)CC2C4)ccc1OCC[NH+]1CCOCC1,O,0,0,6.81,['6.81'],['chembl25']
5849,c1cc2c(cc1C[NH+]1CC3(COC3)C1)OCO2,O,0,0,8.0,['8.0'],['chembl25']
5850,c1cc2c(cc1C[NH+]1CC3CC(C1)O3)OCO2,O,0,0,7.1,['7.1'],['chembl25']
5851,c1cc2c(cc1C[NH+]1CCC1)OCO2,O,0,0,9.5,['9.5'],['chembl25']
5852,c1cc2c(cc1C[NH+]1CCC13COC3)OCO2,O,0,0,6.2,['6.2'],['chembl25']
5853,c1cc2c(cc1C[NH+]1CCC3(CC1)COC3)OCO2,O,0,0,8.3,['8.3'],['chembl25']
5854,c1cc2c(cc1C[NH+]1CCC3(COC3)C1)OCO2,O,0,0,8.1,['8.1'],['chembl25']
5855,c1cc2c(cc1C[NH+]1CCCC1)OCO2,O,0,0,9.7,['9.7'],['chembl25']
5856,c1cc2c(cc1C[NH+]1CCCC13COC3)OCO2,O,0,0,6.3,['6.3'],['chembl25']
5857,c1cc2c(cc1C[NH+]1CCCC3(COC3)C1)OCO2,O,0,0,7.9,['7.9'],['chembl25']
5858,c1cc2c(cc1C[NH+]1CCCCC1)OCO2,O,0,0,9.6,['9.6'],['chembl25']
5859,c1cc2c(cc1C[NH+]1CCCCC13COC3)OCO2,O,0,0,7.0,['7.0'],['chembl25']
5860,c1cc2c(cc1C[NH+]1CCOCC1)OCO2,O,0,0,7.0,['7.0'],['chembl25']
5861,c1cc2c(cn1)CCCC2,O,0,0,6.65,['6.65'],['datawarrior']
5862,c1cc2c(nn1)CCCC2,O,0,0,4.3,['4.3'],['datawarrior']
5863,c1cc2nccnc2cn1,O,0,0,2.5,['2.5'],['datawarrior']
5864,c1ccc(-c2cc3c(-c4ccccc4)ccnc3c3ncccc23)cc1,O,0,0,4.69,['4.69'],['datawarrior']
5865,c1ccc(-c2cc3cccnc3c3ncccc23)cc1,O,0,0,4.72,['4.72'],['datawarrior']
5866,c1ccc(-c2ccc3[nH+]c(CN4CCOCC4)cn3n2)cc1,O,0,0,6.25,['6.25'],['datawarrior']
5867,c1ccc(-c2ccc3ccc4cccnc4c3n2)cc1,O,0,0,4.9,['4.9'],['datawarrior']
5868,c1ccc(-c2ccc3nccn3n2)cc1,O,0,0,4.71,['4.71'],['datawarrior']
5869,c1ccc(-c2ccccn2)cc1,O,0,0,4.48,['4.48'],['chembl25']
5870,c1ccc(-c2ccccn2)nc1,O,0,0,4.42,['4.42'],['datawarrior']
5871,c1ccc(-c2ccco2)nc1,O,0,0,4.18,['4.18'],['datawarrior']
5872,c1ccc(-c2ccnc3c2ccc2c(-c4ccccc4)ccnc23)cc1,O,0,0,4.84,['4.84'],['datawarrior']
5873,c1ccc(-c2ccnc3c2ccc2cccnc23)cc1,O,0,0,4.9,['4.9'],['datawarrior']
5874,c1ccc(-c2ccncc2)cc1,O,0,0,5.3,['5.3'],['datawarrior']
5875,c1ccc(-c2ccoc2)nc1,O,0,0,4.65,['4.65'],['datawarrior']
5876,c1ccc(-c2cn[nH]n2)cc1,O,0,0,8.62,['8.62'],['chembl25']
5877,c1ccc(-c2cnc3c(ccc4cccnc43)c2)cc1,O,0,0,4.82,['4.82'],['datawarrior']
5878,c1ccc(-c2cnc[nH]2)cc1,O,0,0,6.05,['6.05'],"['datawarrior', 'chembl25']"
5879,c1ccc(-c2ncc[nH]2)cc1,O,0,0,6.45,['6.45'],"['datawarrior', 'chembl25']"
5880,c1ccc(-c2ncn[nH]2)cc1,O,0,0,9.29,['9.29'],['chembl25']
5881,c1ccc(-c2nn[n-]n2)cc1,O,0,0,4.363333,['4.363333'],"['datawarrior', 'chembl25']"
5882,c1ccc(-c2nnc(CN3CC[NH+](Cc4nc5ccccc5s4)CC3)o2)cc1,O,0,0,4.4,['4.4'],['chembl25']
5883,c1ccc(-c2noc(CN3CC[NH+](Cc4nc5ccccc5s4)CC3)n2)cc1,O,0,0,4.4,['4.4'],['chembl25']
5884,c1ccc(-n2ccnc2)cc1,O,0,0,5.1,['5.1'],['chembl25']
5885,c1ccc(C(CC[NH+]2CCCCC2)c2ccccc2)cc1,O,0,0,8.96,['8.96'],['datawarrior']
5886,c1ccc(C(CC[NH+]2CCOCC2)c2ccccc2)cc1,O,0,0,7.25,['7.25'],['datawarrior']
5887,c1ccc(C(OCC[NH+]2CCCCC2)c2ccccc2)cc1,O,0,0,8.03,['8.03'],['datawarrior']
5888,c1ccc(C2([NH+]3CCCCC3)CCCCC2)cc1,O,0,0,9.97,['9.97'],['chembl25']
5889,c1ccc(C2(c3ccccc3)CC2C2=[NH+]CCN2)cc1,O,0,0,10.3,['10.3'],['chembl25']
5890,c1ccc(C2=NCCC2)cc1,O,0,0,7.2,['7.2'],['datawarrior']
5891,c1ccc(C2=[NH+]CCN2)nc1,O,0,0,8.98,['8.98'],['datawarrior']
5892,c1ccc(C2CCC[NH2+]2)cc1,O,0,0,9.6,['9.6'],['datawarrior']
5893,c1ccc(C2C[NH+]3CCC2CC3)cc1,O,0,0,10.2,['10.2'],['datawarrior']
5894,c1ccc(C2C[NH2+]2)cc1,O,0,0,6.47,['6.47'],['datawarrior']
5895,c1ccc(C2[NH2+]CCS2)cc1,O,0,0,5.2,['5.2'],['datawarrior']
5896,c1ccc(CC2=NCCC2)cc1,O,0,0,6.9,['6.9'],['datawarrior']
5897,c1ccc(CC2CCC[NH2+]2)cc1,O,0,0,10.35,['10.35'],['datawarrior']
5898,c1ccc(CC2CC[NH+](CCCc3c[nH]c4ccc(-n5cnnc5)cc34)CC2)cc1,O,0,0,9.7,['9.7'],['chembl25']
5899,c1ccc(CCc2nn[n-]n2)cc1,O,0,0,5.09,['5.09'],['chembl25']
5900,c1ccc(CN(CC2=[NH+]CCN2)c2ccccc2)cc1,O,0,0,10.08,['10.08'],"['datawarrior', 'chembl25']"
5901,c1ccc(CN2CC[NH+](Cc3nc(-c4ccccc4)no3)CC2)cc1,O,0,0,6.7,['6.7'],['chembl25']
5902,c1ccc(CN2CC[NH+](Cc3nnc(-c4ccccc4)o3)CC2)cc1,O,0,0,6.7,['6.7'],['chembl25']
5903,c1ccc(CNc2cc[nH+]c(N3CCc4ccccc4C3)c2)cc1,O,0,0,8.6,['8.6'],['chembl25']
5904,c1ccc(CNc2nccs2)cc1,O,0,0,5.15,['5.15'],['datawarrior']
5905,c1ccc(COc2noc3c2C[NH2+]CC3)cc1,O,0,0,7.5,['7.5'],['chembl25']
5906,c1ccc(CSc2ccccn2)cc1,O,0,0,3.23,['3.23'],['datawarrior']
5907,c1ccc(CSc2ccncc2)cc1,O,0,0,5.41,['5.41'],['datawarrior']
5908,c1ccc(CSc2cn[nH]n2)cc1,O,0,0,8.2,['8.2'],"['datawarrior', 'chembl25']"
5909,c1ccc(CSc2ncn[nH]2)cc1,O,0,0,9.5,['9.5'],"['datawarrior', 'chembl25']"
5910,c1ccc(C[NH+](CC2CO2)CC2CO2)cc1,O,0,0,5.75,['5.75'],['datawarrior']
5911,c1ccc(C[NH+](Cc2ccccc2)Cc2ccccc2)cc1,O,0,0,7.44,['7.44'],['datawarrior']
5912,c1ccc(C[NH+]2CCCC2)cc1,O,0,0,9.51,['9.51'],['datawarrior']
5913,c1ccc(C[NH2+]C(CC2CCCCC2)CC2CCCCC2)cc1,O,0,0,7.7,['7.7'],['datawarrior']
5914,c1ccc(C[NH2+]C23OC4C5C6CC(C7C6C4C72)C53)cc1,O,0,0,7.07,['7.07'],['datawarrior']
5915,c1ccc(Cc2c3ccccc3nc3ccccc23)cc1,O,0,0,7.46,['7.46'],['chembl25']
5916,c1ccc(Cc2ccccn2)cc1,O,0,0,5.13,['5.13'],['chembl25']
5917,c1ccc(Cc2ncc3c(n2)CC[NH2+]CC3)cc1,O,0,0,8.5,['8.5'],['chembl25']
5918,c1ccc(Cn2ccnc2)cc1,O,0,0,6.66,['6.66'],['datawarrior']
5919,c1ccc(N2CCCC2)cc1,O,0,0,4.3,['4.3'],['datawarrior']
5920,c1ccc(N2CCc3ccccc3C2)nc1,O,0,0,6.4,['6.4'],['chembl25']
5921,c1ccc(NC(Nc2ccccc2)=[NH+]c2ccccc2)cc1,O,0,0,9.1,['9.1'],['datawarrior']
5922,c1ccc(NC2=[NH+]CCCO2)cc1,O,0,0,9.33,['9.33'],['datawarrior']
5923,c1ccc(NC2=[NH+]CCN2)cc1,O,0,0,9.915,['9.915'],['chembl25']
5924,c1ccc(NC2CCCC2)cc1,O,0,0,5.3,['5.3'],['datawarrior']
5925,c1ccc(NC2CCCCC2)cc1,O,0,0,5.6,['5.6'],['datawarrior']
5926,c1ccc(Nc2c3ccccc3nc3ccccc23)cc1,O,0,0,7.46,['7.46'],['chembl25']
5927,c1ccc(Nc2nccs2)cc1,O,0,0,4.33,['4.33'],['datawarrior']
5928,c1ccc(Nc2nn[n-]n2)cc1,O,0,0,6.3,['6.3'],['datawarrior']
5929,c1ccc(Oc2cccnc2)cc1,O,0,0,4.24,['4.24'],['datawarrior']
5930,c1ccc(Oc2ccnc3c2ccc2c(Oc4ccccc4)ccnc23)cc1,O,0,0,5.34,['5.34'],['datawarrior']
5931,c1ccc(Oc2ccncc2)cc1,O,0,0,6.16,['6.16'],['datawarrior']
5932,c1ccc([C@@H]2C[NH+]3CCC[C@@H]3c3ccccc32)cc1,O,0,0,9.12,['9.12'],['datawarrior']
5933,c1ccc([P+](CCCCc2nn[n-]n2)(c2ccccc2)c2ccccc2)cc1,O,0,0,4.93,['4.93'],['chembl25']
5934,c1ccc([P+](c2ccccc2)(c2ccccc2)C2c3ccccc3-c3ccccc32)cc1,O,0,0,8.99,['8.99'],['datawarrior']
5935,c1ccc2[nH]cnc2c1,O,0,0,5.51,['5.51'],['datawarrior']
5936,c1ccc2c(CC3=[NH+]CCN3)cccc2c1,O,0,0,10.35,['10.35'],['datawarrior']
5937,c1ccc2c(c1)C1CCN2C1,O,0,0,7.1,['7.1'],['datawarrior']
5938,c1ccc2c(c1)C1CCN2CC1,O,0,0,7.79,['7.79'],['datawarrior']
5939,c1ccc2c(c1)C1c3ccccc3C2C2C[NH2+]CC12,O,0,0,10.18,['10.18'],['chembl25']
5940,c1ccc2c(c1)CCCN2,O,0,0,4.96,['4.96'],['datawarrior']
5941,c1ccc2c(c1)CCN2,O,0,0,5.49,['5.49'],['datawarrior']
5942,c1ccc2c(c1)CC[NH2+]C2,O,0,0,9.48,['9.48'],['datawarrior']
5943,c1ccc2c(c1)CCc1cc3ccn4ccnc4c3nc1-2,O,0,0,2.43,['2.43'],['chembl25']
5944,c1ccc2c(c1)CCc1nc3c(ccn4ccnc34)cc1-2,O,0,0,3.53,['3.53'],['chembl25']
5945,c1ccc2c(c1)N1CCN2CC1,O,0,0,4.075,['4.075'],['datawarrior']
5946,c1ccc2c(c1)NCCN2,O,0,0,3.475,['3.475'],['datawarrior']
5947,c1ccc2c(c1)[nH]c1c2cc[n+]2cc3c(cc12)CCCC3,O,0,0,10.6,['10.6'],['datawarrior']
5948,c1ccc2c(c1)ccc1[nH]cnc12,O,0,0,5.28,['5.28'],['datawarrior']
5949,c1ccc2c(c1)ccc1cccnc12,O,0,0,4.25,['4.25'],['datawarrior']
5950,c1ccc2c(c1)ccc1ncccc12,O,0,0,5.15,['5.15'],['datawarrior']
5951,c1ccc2c(c1)cnc1ccccc12,O,0,0,4.58,['4.58'],['datawarrior']
5952,c1ccc2c3c([nH]c2c1)C[NH2+]CC3,O,0,0,8.4,['8.4'],['datawarrior']
5953,c1ccc2cc3[nH]cnc3cc2c1,O,0,0,5.24,['5.24'],['datawarrior']
5954,c1ccc2cc3nc4c(ccn5ccnc45)cc3cc2c1,O,0,0,2.43,['2.43'],['chembl25']
5955,c1ccc2cc3ncccc3cc2c1,O,0,0,4.92,['4.92'],['datawarrior']
5956,c1ccc2cnccc2c1,O,0,0,5.376667,['5.376667'],"['datawarrior', 'chembl25']"
5957,c1ccc2cnncc2c1,O,0,0,3.47,['3.47'],['datawarrior']
5958,c1ccc2n[nH]nc2c1,O,0,0,8.495,['8.495'],"['datawarrior', 'chembl25']"
5959,c1ccc2nc3c(cc2c1)[nH]c1ccccc13,O,0,0,4.2,['4.2'],['chembl25']
5960,c1ccc2nc3ccc4ccccc4c3cc2c1,O,0,0,4.39,['4.39'],['datawarrior']
5961,c1ccc2nc3ccccc3cc2c1,O,0,0,5.48,['5.48'],['datawarrior']
5962,c1ccc2ncccc2c1,O,0,0,4.8725,['4.8725'],"['datawarrior', 'chembl25']"
5963,c1ccc2ncncc2c1,O,0,0,3.51,['3.51'],['datawarrior']
5964,c1ccc2nnccc2c1,O,0,0,2.29,['2.29'],['datawarrior']
5965,c1ccn(-c2ncc[nH]2)c1,O,0,0,5.36,['5.36'],['chembl25']
5966,c1ccn2ccnc2c1,O,0,0,6.9,['6.9'],['chembl25']
5967,c1ccncc1,O,0,0,5.21,['5.21'],"['datawarrior', 'chembl25']"
5968,c1ccnnc1,O,0,0,2.29,['2.29'],"['datawarrior', 'chembl25']"
5969,c1cn2ccc3cc4c(nc3c2n1)CCCC4,O,0,0,4.59,['4.59'],['chembl25']
5970,c1cn[nH]c1,O,0,0,2.565,['2.565'],"['datawarrior', 'chembl25']"
5971,c1cn[nH]n1,O,0,0,9.26,['9.26'],['chembl25']
5972,c1cnc(OC[C@H]2C[C@H](c3ccc(C[NH+]4CCCC4)cc3)C2)nc1,O,0,0,9.8,['9.8'],['chembl25']
5973,c1cnc2[nH]ccc2c1,O,0,0,4.48,['4.48'],['datawarrior']
5974,c1cnc2c(c1)CCCC2,O,0,0,6.6,['6.6'],['datawarrior']
5975,c1cnc2c(c1)C[C@@]1(C[NH+]3CCC1CC3)O2,O,0,0,8.9,['8.9'],['chembl25']
5976,c1cnc2c(c1)c1c(c3cccnc32)CCCC1,O,0,0,5.3,['5.3'],['datawarrior']
5977,c1cnc2c(c1)ccc1c3c(cnc12)CCC3,O,0,0,5.78,['5.78'],['datawarrior']
5978,c1cnc2c(c1)ccc1c3c(cnc12)CCCC3,O,0,0,5.66,['5.66'],['datawarrior']
5979,c1cnc2c(c1)ccc1cccnc12,O,0,0,3.5,['3.5'],['datawarrior']
5980,c1cnc2c(c1)ccc1ncccc12,O,0,0,4.0,['4.0'],['datawarrior']
5981,c1cnc2ncncc2n1,O,0,0,4.13,['4.13'],['datawarrior']
5982,c1cncc(-c2ccc[nH]2)c1,O,0,0,4.32,['4.32'],['datawarrior']
5983,c1cncc(-c2ccco2)c1,O,0,0,4.62,['4.62'],['datawarrior']
5984,c1cncc(-c2ccoc2)c1,O,0,0,4.93,['4.93'],['datawarrior']
5985,c1coc(-c2ccncc2)c1,O,0,0,5.6,['5.6'],['datawarrior']
5986,c1coc(C2C[NH+]3CCC2CC3)c1,O,0,0,10.03,['10.03'],['datawarrior']
5987,c1csc(C2CCC[NH2+]2)c1,O,0,0,9.35,['9.35'],['datawarrior']
5988,c1cscn1,O,0,0,2.54,['2.54'],"['datawarrior', 'chembl25']"
5989,c1nc(NC2CCCCC2)c2ncn(C3CCCCC3)c2n1,O,0,0,4.4,['4.4'],['datawarrior']
5990,c1nc2c(ccc3c4c(cnc32)CCCC4)c2c1CCCC2,O,0,0,6.23,['6.23'],['datawarrior']
5991,c1nc2cc3c(cc2[nH]1)CCCC3,O,0,0,5.98,['5.98'],['datawarrior']
5992,c1ncc2c(n1)NCCN2,O,0,0,6.63,['6.63'],['datawarrior']
5993,c1nn[n-]n1,O,0,0,4.815,['4.815'],"['datawarrior', 'chembl25']"