,Solute SMILES,Solvent SMILES,Solute CAS,Solute IUPAC,pKa (avg),pKa (all),Source
2965,C[C@](Cc1c[nH]c2ccccc12)(NC(=O)OC1C2CC3CC(C2)CC1C3)C(=O)NC[C@H](NC(=O)CCc1nn[n-]n1)c1ccccc1,O,0,0,5.4,['5.4'],['chembl25']
2966,C[C@]1(C2CCCC2)Cc2cc(OCC(=O)[O-])c(Cl)c(Cl)c2C1=O,O,0,0,3.9,['3.9'],['chembl25']
2967,C[C@]1(C2CCCC2)Cc2cc(OCCCC(=O)[O-])c(Cl)c(Cl)c2C1=O,O,0,0,5.7,['5.7'],['chembl25']
2968,C[C@]1(O)CCCC[C@@H]1[NH3+],O,0,0,9.49,['9.49'],['datawarrior']
2969,C[C@]1(c2cc(NC(=O)c3ccc(C#N)cn3)ccc2F)[NH+]=C(N)CO[C@@H]1F,O,0,0,7.9,['7.9'],['chembl25']
2970,C[C@]1(c2cc(NC(=O)c3ccc(C#N)cn3)ccc2F)[NH+]=C(N)OCC1(F)F,O,0,0,5.8,['5.8'],['chembl25']
2971,C[C@]1(c2cc(NC(=O)c3ccc(C#N)cn3)ccc2F)[NH+]=C(N)OC[C@@H]1F,O,0,0,8.1,['8.1'],['chembl25']
2972,C[C@]1(c2cc(NC(=O)c3ccc(C#N)cn3)ccc2F)[NH+]=C(N)OC[C@H]1F,O,0,0,7.4,['7.4'],['chembl25']
2973,C[C@]1(c2cc(NC(=O)c3ccc(C#N)cn3)ccc2F)[NH+]=C(N)O[C@@H](C(F)(F)F)[C@@H]1F,O,0,0,5.8,['5.8'],['chembl25']
2974,C[C@]1(c2cc(NC(=O)c3ccc(C#N)cn3)ccc2F)[NH+]=C(N)O[C@H](C(F)(F)F)[C@@H]1F,O,0,0,5.9,['5.9'],['chembl25']
2975,C[C@]1(c2cc(NC(=O)c3ccc(Cl)cn3)ccc2F)[NH+]=C(N)CO[C@@H]1F,O,0,0,7.9,['7.9'],['chembl25']
2976,C[C@]1(c2cc(NC(=O)c3ccc(Cl)cn3)ccc2F)[NH+]=C(N)OCC1(F)F,O,0,0,6.3,['6.3'],['chembl25']
2977,C[C@]1(c2cc(NC(=O)c3ccc(Cl)cn3)ccc2F)[NH+]=C(N)SCC1(F)F,O,0,0,6.1,['6.1'],['chembl25']
2978,C[C@]1(c2cc(NC(=O)c3cnc(Cl)cn3)ccc2F)[NH+]=C(N)CO[C@@H]1C(F)(F)F,O,0,0,8.0,['8.0'],['chembl25']
2979,C[C@]1(c2cc(NC(=O)c3cnc(Cl)cn3)ccc2F)[NH+]=C(N)CO[C@@]1(F)C(F)(F)F,O,0,0,6.8,['6.8'],['chembl25']
2980,C[C@]1(c2cc(NC(=O)c3cnc(Cl)cn3)ccc2F)[NH+]=C(N)CO[C@H]1C(F)(F)F,O,0,0,7.8,['7.8'],['chembl25']
2981,C[C@]1(c2cc(NC(=O)c3cnc(Cl)cn3)ccc2F)[NH+]=C(N)CO[C@]1(F)C(F)(F)F,O,0,0,6.9,['6.9'],['chembl25']
2982,C[C@]1(c2cccc(NC(=O)c3ccc(Cl)cn3)c2)[NH+]=C(N)c2ccccc21,O,0,0,9.7,['9.7'],['chembl25']
2983,C[C@]12CCOC[C@@H]1[C@]1(COC(N)=[NH+]1)c1cc(-c3cc(F)cc(Cl)c3)ccc1O2,O,0,0,6.7,['6.7'],['chembl25']
2984,C[C@]12CC[C@@H]3C(=O)O[C@@H](C(=O)[O-])C[C@]3(C)[C@H]1[C@H]1CCC2(O)C(=O)O1,O,0,0,3.5,['3.5'],['datawarrior']
2985,C[C@]12CC[C@@H]3c4ccc(O)cc4CC[C@H]3[C@@H]1C[C@@H](O)[C@@H]2O,O,0,0,10.8,['10.8'],['datawarrior']
2986,C[C@]12CC[C@@H]3c4ccc(OS(N)(=O)=O)cc4CC[C@H]3[C@@H]1CCC2=O,O,0,0,8.37,['8.37'],['chembl25']
2987,C[C@]12CC[C@H]3[C@@H](CC=C4C[C@@H](O)CC[C@@]43C)[C@@H]1CC[C@@H]2[C@@H](O)CC(O)(C(F)(F)F)C(F)(F)F,O,0,0,9.04,['9.04'],['chembl25']
2988,C[C@]12CC[C@H]3[C@@H](CC=C4C[C@@H](O)CC[C@@]43C)[C@@H]1CC[C@@H]2[C@H](O)CC(O)(C(F)(F)F)C(F)(F)F,O,0,0,9.08,['9.08'],['chembl25']
2989,C[C@]12[NH2+][C@H](Cc3ccccc31)c1ccccc12,O,0,0,5.81,['5.81'],['chembl25']
2990,C[N+](C)(C)CC(O)CC(=O)[O-],O,0,0,3.8,['3.8'],['datawarrior']
2991,C[N+](C)(C)CCCC(=O)[O-],O,0,0,4.02,['4.02'],['datawarrior']
2992,C[N+](C)(C)CCCc1ccc(O)cc1,O,0,0,9.8,['9.8'],['datawarrior']
2993,C[N+](C)(C)CCCc1cccc(O)c1,O,0,0,9.64,['9.64'],['datawarrior']
2994,C[N+](C)(C)CCCc1ccccc1O,O,0,0,9.78,['9.78'],['datawarrior']
2995,C[N+](C)(C)CCN,O,0,0,7.34,['7.34'],['datawarrior']
2996,C[N+](C)(C)CCOC(=O)/C=C/c1cnc[nH]1,O,0,0,4.6,['4.6'],['datawarrior']
2997,C[N+](C)(C)CCS,O,0,0,7.98,['7.98'],['datawarrior']
2998,C[N+](C)(C)CCSC(N=O)C(=O)c1ccc(Br)cc1,O,0,0,7.18,['7.18'],['chembl25']
2999,C[N+](C)(C)CCSC(N=O)C(=O)c1ccc(Cl)cc1,O,0,0,7.19,['7.19'],['chembl25']
3000,C[N+](C)(C)CCSC(N=O)C(=O)c1ccc(F)cc1,O,0,0,7.36,['7.36'],['chembl25']
3001,C[N+](C)(C)CCc1ccc(O)cc1,O,0,0,9.8,['9.8'],['datawarrior']
3002,C[N+](C)(C)CCc1cccc(O)c1,O,0,0,9.43,['9.43'],['datawarrior']
3003,C[N+](C)(C)CCc1ccccc1O,O,0,0,9.57,['9.57'],['datawarrior']
3004,C[N+](C)(C)Cc1ccc(O)cc1,O,0,0,8.75,['8.75'],['datawarrior']
3005,C[N+](C)(C)Cc1ccc([S-])cc1,O,0,0,5.5,['5.5'],['chembl25']
3006,C[N+](C)(C)Cc1cccc(O)c1,O,0,0,8.89,['8.89'],['datawarrior']
3007,C[N+](C)(C)Cc1cccc(O)c1O,O,0,0,8.1,['8.1'],['datawarrior']
3008,C[N+](C)(C)Cc1ccccc1O,O,0,0,8.71,['8.71'],['datawarrior']
3009,C[N+](C)(C)[O-],O,0,0,4.65,['4.65'],['datawarrior']
3010,C[N+](C)(C)c1ccc([O-])cc1,O,0,0,8.25,['8.25'],['datawarrior']
3011,C[N+](C)(C)c1cccc(O)c1,O,0,0,8.07,['8.07'],['datawarrior']
3012,C[N+](C)(C)c1ccccc1[O-],O,0,0,7.46,['7.46'],['datawarrior']
3013,C[N+]1(CC(=O)[O-])CCCCC1,O,0,0,2.01,['2.01'],['datawarrior']
3014,C[N+]1(CCC(=O)[O-])CCCCC1,O,0,0,3.43,['3.43'],['datawarrior']
3015,C[N+]1(CCCC(=O)[O-])CCCCC1,O,0,0,4.11,['4.11'],['datawarrior']
3016,C[N+]1(CCCCC(=O)[O-])CCCCC1,O,0,0,4.33,['4.33'],['datawarrior']
3017,C[N+]1(CCCCCC(=O)[O-])CCCCC1,O,0,0,4.44,['4.44'],['datawarrior']
3018,C[NH+](C)C,O,0,0,9.88,['9.88'],"['datawarrior', 'chembl25']"
3019,C[NH+](C)C(C)(C)C,O,0,0,10.52,['10.52'],['datawarrior']
3020,C[NH+](C)C(C)(C)C=O,O,0,0,8.4,['8.4'],['datawarrior']
3021,C[NH+](C)C(C)(C)CCCc1ccc(C(C)(C)C)cc1,O,0,0,10.4,['10.4'],['chembl25']
3022,C[NH+](C)C1(CCCc2ccc(C(C)(C)C)cc2)COC1,O,0,0,7.2,['7.2'],['chembl25']
3023,C[NH+](C)C1CC2c3ccccc3C1c1ccccc12,O,0,0,8.67,['8.67'],['chembl25']
3024,C[NH+](C)C1CCCCC1,O,0,0,10.48,['10.48'],['datawarrior']
3025,C[NH+](C)CC(=O)[O-],O,0,0,9.81,['9.81'],['datawarrior']
3026,C[NH+](C)CC(C)(C)C,O,0,0,9.75,['9.75'],['datawarrior']
3027,C[NH+](C)CC(C)(C)CCc1ccc(C(C)(C)C)cc1,O,0,0,9.4,['9.4'],['chembl25']
3028,C[NH+](C)CC(C)(C)CNC(=O)[C@H]1C[C@@H]1c1ccccc1,O,0,0,8.9,['8.9'],['chembl25']
3029,C[NH+](C)CC(CSC#N)SC#N,O,0,0,6.1,['6.1'],['datawarrior']
3030,C[NH+](C)CC(CSCc1ccccc1)SCc1ccccc1,O,0,0,7.3,['7.3'],['datawarrior']
3031,C[NH+](C)CC(Cc1ccccc1)c1ccccc1,O,0,0,9.93,['9.93'],['chembl25']
3032,C[NH+](C)CC(Cl)CCl,O,0,0,7.5,['7.5'],['datawarrior']
3033,C[NH+](C)CC(Oc1ccccc1)Oc1ccccc1,O,0,0,9.2,['9.2'],['chembl25']
3034,C[NH+](C)CC(P(=O)([O-])[O-])P(=O)([O-])[O-],O,0,0,8.98,['8.98'],['datawarrior']
3035,C[NH+](C)CC/C=C1/c2ccccc2Sc2ccc(Cl)cc21,O,0,0,8.84,['8.84'],['chembl25']
3036,C[NH+](C)CC1(CCc2ccc(C(C)(C)C)cc2)COC1,O,0,0,8.0,['8.0'],['chembl25']
3037,C[NH+](C)CC1=CC2c3ccccc3C1c1ccccc12,O,0,0,8.04,['8.04'],['chembl25']
3038,C[NH+](C)CC1C2c3ccccc3C(c3ccccc32)C1CO,O,0,0,8.86,['8.86'],['chembl25']
3039,C[NH+](C)CCBr,O,0,0,7.55,['7.55'],['datawarrior']
3040,C[NH+](C)CCC(=O)C(C)(C)C,O,0,0,9.49,['9.49'],['datawarrior']
3041,C[NH+](C)CCC(C#N)(c1ccccc1)c1ccccc1,O,0,0,8.31,['8.31'],['datawarrior']
3042,C[NH+](C)CCC(C)(C)Cc1ccc(C(C)(C)C)cc1,O,0,0,9.5,['9.5'],['chembl25']
3043,C[NH+](C)CCC(c1ccccc1)c1ccc(-c2ccccc2)cc1,O,0,0,9.85,['9.85'],['chembl25']
3044,C[NH+](C)CCC(c1ccccc1)c1ccccc1,O,0,0,9.7,['9.7'],"['datawarrior', 'chembl25']"
3045,C[NH+](C)CCC1(Cc2ccc(C(C)(C)C)cc2)COC1,O,0,0,9.2,['9.2'],['chembl25']
3046,C[NH+](C)CCC=C1c2ccccc2C=Cc2ccccc21,O,0,0,9.69,['9.69'],['chembl25']
3047,C[NH+](C)CCC=C1c2ccccc2CCc2ccccc21,O,0,0,9.42,['9.42'],['chembl25']
3048,C[NH+](C)CCC=C1c2ccccc2COc2ccccc21,O,0,0,8.5925,['8.5925'],['chembl25']
3049,C[NH+](C)CCCC(=O)Oc1ccccc1,O,0,0,9.7,['9.7'],['datawarrior']
3050,C[NH+](C)CCCC(C)(C)c1ccc(C(C)(C)C)cc1,O,0,0,9.8,['9.8'],['chembl25']
3051,C[NH+](C)CCCC1(c2ccc(C(C)(C)C)cc2)COC1,O,0,0,9.6,['9.6'],['chembl25']
3052,C[NH+](C)CCCC1(c2ccc(F)cc2)OCc2cc(C#N)ccc21,O,0,0,9.5,['9.5'],['chembl25']
3053,C[NH+](C)CCCCC(=O)Oc1ccccc1,O,0,0,10.0,['10.0'],['datawarrior']
3054,C[NH+](C)CCCCCCCCCCNC(=O)CN=O,O,0,0,9.795,['9.795'],['datawarrior']
3055,C[NH+](C)CCCCCCCCCNC(=O)CN=O,O,0,0,9.755,['9.755'],['datawarrior']
3056,C[NH+](C)CCCCCCCCNC(=O)CN=O,O,0,0,9.735,['9.735'],['datawarrior']
3057,C[NH+](C)CCCCCCCNC(=O)CN=O,O,0,0,9.725,['9.725'],['datawarrior']
3058,C[NH+](C)CCCCCCNC(=O)CN=O,O,0,0,9.68,['9.68'],['datawarrior']
3059,C[NH+](C)CCCCCNC(=O)CN=O,O,0,0,9.585,['9.585'],['datawarrior']
3060,C[NH+](C)CCCCNC(=O)CN=O,O,0,0,9.47,['9.47'],['datawarrior']
3061,C[NH+](C)CCCCc1ccc(C(C)(C)C)cc1,O,0,0,9.9,['9.9'],['chembl25']
3062,C[NH+](C)CCCCc1ccc(C2(C)COC2)cc1,O,0,0,9.9,['9.9'],['chembl25']
3063,C[NH+](C)CCCCc1ccc(C2(F)COC2)cc1,O,0,0,9.9,['9.9'],['chembl25']
3064,C[NH+](C)CCCCc1ccc(C2(O)COC2)cc1,O,0,0,9.6,['9.6'],['chembl25']
3065,C[NH+](C)CCCCc1ccc(C2COC2)cc1,O,0,0,9.9,['9.9'],['chembl25']
3066,C[NH+](C)CCCN1c2cc(F)ccc2CCc2ccc(F)cc21,O,0,0,7.65,['7.65'],['chembl25']
3067,C[NH+](C)CCCN1c2ccccc2CCc2ccc(Cl)cc21,O,0,0,9.34,['9.34'],['chembl25']
3068,C[NH+](C)CCCN1c2ccccc2CCc2ccccc21,O,0,0,9.472857,['9.472857'],['chembl25']
3069,C[NH+](C)CCCN1c2ccccc2Sc2ccc(C#N)cc21,O,0,0,9.29,['9.29'],['chembl25']
3070,C[NH+](C)CCCN1c2ccccc2Sc2ccc(C(F)(F)F)cc21,O,0,0,9.216,['9.216'],['chembl25']
3071,C[NH+](C)CCCN1c2ccccc2Sc2ccc(Cl)cc21,O,0,0,9.271818,['9.271818'],['chembl25']
3072,C[NH+](C)CCCN1c2ccccc2Sc2ccccc21,O,0,0,9.36,['9.36'],['chembl25']
3073,C[NH+](C)CCCNC(=O)CN=O,O,0,0,9.23,['9.23'],['datawarrior']
3074,C[NH+](C)CCCO,O,0,0,9.76,['9.76'],['datawarrior']
3075,C[NH+](C)CCCc1ccc(-c2ccc(Cl)cc2)cc1,O,0,0,9.96,['9.96'],['chembl25']
3076,C[NH+](C)CCCc1ccc(-c2ccccc2)cc1,O,0,0,9.88,['9.88'],['chembl25']
3077,C[NH+](C)CCCc1ccc(Br)cc1,O,0,0,10.62,['10.62'],['chembl25']
3078,C[NH+](C)CCCc1ccc(C(C)(C)C)cc1,O,0,0,10.03,['10.03'],['chembl25']
3079,C[NH+](C)CCCc1ccc(Cl)cc1,O,0,0,10.59,['10.59'],['chembl25']
3080,C[NH+](C)CCCc1ccc2ccccc2c1,O,0,0,10.27,['10.27'],['chembl25']
3081,C[NH+](C)CCCc1ccccc1,O,0,0,10.96,['10.96'],['chembl25']
3082,C[NH+](C)CCNC(=O)CN=O,O,0,0,8.8,['8.8'],['datawarrior']
3083,C[NH+](C)CCO,O,0,0,9.36,['9.36'],['datawarrior']
3084,C[NH+](C)CCO/N=C1/C[C@H]2C(C)(C)O[C@H]3CC(=O)OC[C@]32[C@H]2CC[C@@]3(C)[C@H](c4ccoc4)OC(=O)[C@H]4O[C@]43[C@]12C,O,0,0,8.78,['8.78'],['chembl25']
3085,C[NH+](C)CCO/N=C1/C[C@H]2C(C)(C)O[C@H]3CC(=O)OC[C@]32[C@H]2CC[C@]3(C)C(=CC(=O)O[C@H]3c3ccoc3)[C@]12C,O,0,0,8.88,['8.88'],['chembl25']
3086,C[NH+](C)CCOC(C)(c1ccccc1)c1ccccc1,O,0,0,8.75,['8.75'],['datawarrior']
3087,C[NH+](C)CCOC(c1ccccc1)c1ccc(Br)cc1,O,0,0,8.64,['8.64'],['datawarrior']
3088,C[NH+](C)CCOC(c1ccccc1)c1ccccc1,O,0,0,9.066667,['9.066667'],"['datawarrior', 'chembl25']"
3089,C[NH+](C)CCOc1ccc(C(=O)N2C/C(=C\c3ccccc3)C(=O)/C(=C/c3ccccc3)C2)cc1,O,0,0,10.73,['10.73'],['chembl25']
3090,C[NH+](C)C[C@H]1[C@@H]2C=C[C@@H](C2)[C@H]1CO,O,0,0,9.54,['9.54'],['datawarrior']
3091,C[NH+](C)Cc1c(C(C)(C)C)cccc1C(C)(C)C,O,0,0,9.2,['9.2'],['datawarrior']
3092,C[NH+](C)Cc1ccc(NC(=O)CN=O)cc1,O,0,0,8.995,['8.995'],['datawarrior']
3093,C[NH+](C)Cc1cccc(NC(=O)CN=O)c1,O,0,0,8.7,['8.7'],['datawarrior']
3094,C[NH+](C)Cc1ccccc1,O,0,0,8.995,['8.995'],"['datawarrior', 'chembl25']"
3095,C[NH+](C)Cc1ccccc1C(=O)N(CCc1ccc(Cl)cc1)C1CCC2(CC1)OCCO2,O,0,0,8.4,['8.4'],['chembl25']
3096,C[NH+](C)Cc1ccccc1CO,O,0,0,8.78,['8.78'],['datawarrior']
3097,C[NH+](C)Cc1no[n+]([O-])c1C#N,O,0,0,5.82,['5.82'],['chembl25']
3098,C[NH+](C)[C@H]1CCCC[C@@H]1O,O,0,0,10.42,['10.42'],['datawarrior']
3099,C[NH+](C)[C@H]1CC[C@@H](C)CC1,O,0,0,10.46,['10.46'],['datawarrior']
3100,C[NH+](C/C=C/C#CC(C)(C)C)Cc1cccc2ccccc12,O,0,0,8.5,['8.5'],['chembl25']
3101,C[NH+](CC#CCN1CCCC1=O)CCBr,O,0,0,5.6,['5.6'],['chembl25']
3102,C[NH+](CC(N)=O)C1CCC(OCc2cc(C(F)(F)F)cc(C(F)(F)F)c2)C1c1ccccc1,O,0,0,5.8,['5.8'],['chembl25']
3103,C[NH+](CC(N)=O)[C@@H]1CC[C@H](OCc2cc(C(F)(F)F)cc(C(F)(F)F)c2)[C@H]1c1ccccc1,O,0,0,5.8,['5.8'],['chembl25']
3104,C[NH+](CC1CO1)CC1CO1,O,0,0,6.45,['6.45'],['datawarrior']
3105,C[NH+](CCCCCCOc1ccc(C(=O)c2ccc(Br)cc2)cc1)C1CC1,O,0,0,7.48,['7.48'],['chembl25']
3106,C[NH+](CCCCCCOc1ccc(C(=O)c2ccc(Br)cc2)cc1)CC1CC1,O,0,0,9.37,['9.37'],['chembl25']
3107,C[NH+](CCCN1c2ccccc2CCc2ccccc21)CC(=O)c1ccc(Cl)cc1,O,0,0,6.7,['6.7'],['chembl25']
3108,C[NH+](CCCO)CCCCCCOc1ccc(C(=O)c2ccc(Br)cc2)cc1,O,0,0,9.05,['9.05'],['chembl25']
3109,C[NH+](CCCl)CCCl,O,0,0,6.45,['6.45'],['chembl25']
3110,C[NH+](CCO)CCCl,O,0,0,7.5,['7.5'],['datawarrior']
3111,C[NH+](CCO)CCO,O,0,0,8.51,['8.51'],['datawarrior']
3112,C[NH+](Cc1cc(Br)cc(Br)c1N)C1CCCCC1,O,0,0,8.5,['8.5'],['chembl25']
3113,C[NH+](Cc1ccc(OC2CN(C(=O)c3nnc(-c4ccccc4)o3)C2)cc1)CC1(C)COC1,O,0,0,8.5,['8.5'],['chembl25']
3114,C[NH+]1C(C)(C)CCCC1(C)C,O,0,0,11.25,['11.25'],['datawarrior']
3115,C[NH+]1C2=CCCC1CCC2,O,0,0,8.8,['8.8'],['datawarrior']
3116,C[NH+]1C2CC(OC(=O)c3c[nH]c4ccccc34)CC1C1OC12,O,0,0,6.64,['6.64'],['chembl25']
3117,C[NH+]1C2CCC1CC(=NOC(c1ccccc1)c1ccc(Cl)cc1)C2,O,0,0,8.34,['8.34'],['chembl25']
3118,C[NH+]1C2CCC1CC(NC(=O)N1CC(C)(C)c3ccccc31)C2,O,0,0,9.4,['9.4'],['chembl25']
3119,C[NH+]1C2COCC1CC(NC(=O)N1CC(C)(C)c3ccccc31)C2,O,0,0,7.1,['7.1'],['chembl25']
3120,C[NH+]1C=C(C#N)C=CC1,O,0,0,2.7,['2.7'],['datawarrior']
3121,C[NH+]1C=C(C#N)CCC1,O,0,0,2.7,['2.7'],['datawarrior']
3122,C[NH+]1C=CNC1N,O,0,0,8.54,['8.54'],['chembl25']
3123,C[NH+]1CC1,O,0,0,7.86,['7.86'],['datawarrior']
3124,C[NH+]1CC=CC1,O,0,0,9.92,['9.92'],['datawarrior']
3125,C[NH+]1CC=NC1,O,0,0,7.12,['7.12'],['chembl25']
3126,C[NH+]1CCC(=C2c3ccccc3C=Cc3ccccc32)CC1,O,0,0,8.87,['8.87'],['chembl25']
3127,C[NH+]1CCC(OC(c2ccccc2)c2ccccc2)CC1,O,0,0,8.9,['8.9'],['chembl25']
3128,C[NH+]1CCC(c2c3ccccc3cc(=O)c3sccc23)CC1,O,0,0,8.24,['8.24'],['chembl25']
3129,C[NH+]1CCC1,O,0,0,10.4,['10.4'],['datawarrior']
3130,C[NH+]1CCC2=C(C1)C(c1ccccc1)c1ccccc12,O,0,0,8.29,['8.29'],['datawarrior']
3131,C[NH+]1CCC=CC1=CN=O,O,0,0,6.32,['6.32'],['chembl25']
3132,C[NH+]1CCCC(n2nc(Cc3ccc(Cl)cc3)c3ccccc3c2=O)CC1,O,0,0,9.54,['9.54'],['chembl25']
3133,C[NH+]1CCCC1,O,0,0,10.58,['10.58'],['datawarrior']
3134,C[NH+]1CCCC1CCOC(C)(c1ccccc1)c1ccc(Cl)cc1,O,0,0,9.2,['9.2'],['chembl25']
3135,C[NH+]1CCCC1c1ccccc1,O,0,0,8.8,['8.8'],['datawarrior']
3136,C[NH+]1CCCCC1,O,0,0,9.09,['9.09'],"['datawarrior', 'chembl25']"
3137,C[NH+]1CCCCC1CCN1c2ccccc2Sc2ccc(S(C)=O)cc21,O,0,0,9.61,['9.61'],['chembl25']
3138,C[NH+]1CCCCCC1,O,0,0,10.96,['10.96'],['datawarrior']
3139,C[NH+]1CCN(C(=O)c2ccccc2)CC1,O,0,0,6.78,['6.78'],['datawarrior']
3140,C[NH+]1CCN(C(C#N)c2ccc3c(c2)OCO3)CC1,O,0,0,7.6,['7.6'],['chembl25']
3141,C[NH+]1CCN(C(c2ccccc2)c2ccc(Cl)cc2)CC1,O,0,0,7.81,['7.81'],['datawarrior']
3142,C[NH+]1CCN(C2=[NH+]c3ccccc3Oc3ccc(Cl)cc32)CC1,O,0,0,7.513333,['7.513333'],['chembl25']
3143,C[NH+]1CCN(c2ccccc2/C=C2\SCCN(c3ccc(Cl)c(Cl)c3)C2=O)CC1,O,0,0,11.5,['11.5'],['chembl25']
3144,C[NH+]1CCN(c2nc3c(=O)c4cc(F)ccc4[nH]c3s2)CC1,O,0,0,8.0,['8.0'],['chembl25']
3145,C[NH+]1CCN(c2nc3c(=O)c4ccccc4[nH]c3s2)CC1,O,0,0,8.6,['8.6'],['chembl25']
3146,C[NH+]1CCN2c3ccccc3Cc3ccccc3C2C1,O,0,0,7.75,['7.75'],['chembl25']
3147,C[NH+]1CCOC(c2ccccc2)c2ccccc2C1,O,0,0,9.3,['9.3'],['chembl25']
3148,C[NH+]1CCOCC1,O,0,0,7.53,['7.53'],"['datawarrior', 'chembl25']"
3149,C[NH+]1CC[C@H]2CCC[C@@H](NC(=O)c3ccc(Cl)c(Cl)c3)[C@H]2C1,O,0,0,9.05,['9.05'],['chembl25']
3150,C[NH+]1CC[C@H]2CCC[C@@H](NC(=O)c3ccc(Cl)cc3)[C@@H]2C1,O,0,0,8.83,['8.83'],['chembl25']
3151,C[NH+]1CC[C@H]2CCC[C@@H](NC(=O)c3ccccc3)[C@@H]2C1,O,0,0,8.99,['8.99'],['chembl25']
3152,C[NH+]1CC[C@H]2CCC[C@@H](NC(=O)c3ccccc3)[C@H]2C1,O,0,0,9.18,['9.18'],['chembl25']
3153,C[NH+]1CC[C@H]2CCC[C@@H](OC(=O)c3ccc(Cl)cc3)[C@@H]2C1,O,0,0,8.75,['8.75'],['chembl25']
3154,C[NH+]1CC[C@H]2CCC[C@@H](OC(=O)c3ccc(Cl)cc3)[C@H]2C1,O,0,0,8.9,['8.9'],['chembl25']
3155,C[NH+]1CC[C@H]2CCC[C@@H](OC(=O)c3ccccc3)[C@H]2C1,O,0,0,9.05,['9.05'],['chembl25']
3156,C[NH+]1CC[C@]23c4c5ccc(OCc6ccccc6)c4O[C@H]2[C@@H](O)C=C[C@H]3[C@H]1C5,O,0,0,8.07,['8.07'],['datawarrior']
3157,C[NH+]1C[C@@H](CO)C[C@H]2c3cccc4[nH]cc(c34)C[C@@H]21,O,0,0,8.3,['8.3'],['datawarrior']
3158,C[NH+]1C[C@H](CO)C[C@H]2c3cccc4[nH]cc(c34)C[C@@H]21,O,0,0,8.84,['8.84'],['datawarrior']
3159,C[NH+]1[C@H](C[C@@H](O)c2ccccc2)CCC[C@@H]1CC(=O)c1ccccc1,O,0,0,8.0,['8.0'],['datawarrior']
3160,C[NH+]1[C@H]2CC[C@@H]1C[C@@H](O)C2,O,0,0,10.33,['10.33'],['datawarrior']
3161,C[NH+]1[C@H]2CC[C@@H]1C[C@@H](OC(=O)[C@H](CO)c1ccccc1)C2,O,0,0,9.66,['9.66'],['datawarrior']
3162,C[NH+]1[C@H]2CC[C@@H]1C[C@H](O)C2,O,0,0,9.86,['9.86'],['datawarrior']
3163,C[NH+]1[C@H]2CC[C@@H]1C[C@H](OC(=O)C(CO)c1ccccc1)C2,O,0,0,9.76125,['9.76125'],['chembl25']
3164,C[NH+]1[C@H]2CC[C@@H]1C[C@H](OC(=O)c1c[nH]c3ccccc13)C2,O,0,0,8.4,['8.4'],['chembl25']
3165,C[NH+]1[C@H]2CC[C@@H]1C[C@H](OC(c1ccccc1)c1ccccc1)C2,O,0,0,10.0,['10.0'],['chembl25']
3166,C[NH+]1[C@H]2C[C@@H](OC(=O)[C@H](CO)c3ccccc3)C[C@@H]1[C@@H]1O[C@@H]12,O,0,0,7.55,['7.55'],['datawarrior']
3167,C[NH+]1[C@H]2C[C@H](OC(=O)[C@H](CO)c3ccccc3)C[C@@H]1[C@@H]1O[C@H]12,O,0,0,7.633333,['7.633333'],['chembl25']
3168,C[NH+]1[C@H]2C[C@H]3C[C@@H]1[C@H](O3)[C@@H]2O,O,0,0,8.2,['8.2'],['datawarrior']
3169,C[NH+]=C(N)[NH+]=C(N)Nc1ccc(Cl)cc1,O,0,0,10.6,['10.6'],['chembl25']
3170,C[NH+]=C1Nc2ccccc2C(C)N1,O,0,0,10.6,['10.6'],['chembl25']
3171,C[NH2+]C,O,0,0,10.88,['10.88'],"['datawarrior', 'chembl25']"
3172,C[NH2+]C(C)C(O)c1ccccc1,O,0,0,9.96,['9.96'],['datawarrior']
3173,C[NH2+]C(C)CC1CCCCC1,O,0,0,10.52,['10.52'],['datawarrior']
3174,C[NH2+]C(C)Cc1ccc(OC)c(OC)c1,O,0,0,9.8,['9.8'],['datawarrior']
3175,C[NH2+]C(C)Cc1ccccc1,O,0,0,9.87,['9.87'],['datawarrior']
3176,C[NH2+]C(CO)CO,O,0,0,9.12,['9.12'],['datawarrior']
3177,C[NH2+]C1(c2ccccc2Cl)CCCCC1=O,O,0,0,7.495,['7.495'],['chembl25']
3178,C[NH2+]CC(=O)N(C)C,O,0,0,8.86,['8.86'],['datawarrior']
3179,C[NH2+]CC(=O)Nc1c(C)cccc1C,O,0,0,7.99,['7.99'],['datawarrior']
3180,C[NH2+]CC(C)c1ccccc1,O,0,0,9.87,['9.87'],['datawarrior']
3181,C[NH2+]CC(N)=O,O,0,0,8.35,['8.35'],['datawarrior']
3182,C[NH2+]CC(O)CO,O,0,0,9.55,['9.55'],['datawarrior']
3183,C[NH2+]CC(O)c1ccccc1,O,0,0,9.31,['9.31'],['datawarrior']
3184,C[NH2+]CC1CC2c3ccccc3C1c1ccccc12,O,0,0,10.18,['10.18'],['chembl25']
3185,C[NH2+]CCC(=O)c1ccccc1,O,0,0,9.0,['9.0'],['datawarrior']
3186,C[NH2+]CCC(Oc1ccc(C(F)(F)F)cc1)c1ccccc1,O,0,0,10.04,['10.04'],['chembl25']
3187,C[NH2+]CCC=C1c2ccccc2CCc2ccccc21,O,0,0,10.144,['10.144'],['chembl25']
3188,C[NH2+]CCCC12CCC(c3ccccc31)c1ccccc12,O,0,0,10.533333,['10.533333'],['chembl25']
3189,C[NH2+]CCCC1c2ccccc2C=Cc2ccccc21,O,0,0,8.2,['8.2'],['chembl25']
3190,C[NH2+]CCCCc1ccccc1,O,0,0,10.76,['10.76'],['datawarrior']
3191,C[NH2+]CCCN1c2ccccc2CCc2ccccc21,O,0,0,10.245,['10.245'],"['datawarrior', 'chembl25']"
3192,C[NH2+]CCCNC(=O)CN=O,O,0,0,9.62,['9.62'],['datawarrior']
3193,C[NH2+]CCC[C@]12CC[C@H](c3ccccc31)c1ccccc12,O,0,0,10.5,['10.5'],['chembl25']
3194,C[NH2+]CCCc1ccccc1,O,0,0,10.58,['10.58'],['datawarrior']
3195,C[NH2+]CCN(C)C(=O)Oc1ccc(OC)cc1,O,0,0,8.88,['8.88'],['chembl25']
3196,C[NH2+]CCO,O,0,0,9.91,['9.91'],['datawarrior']
3197,C[NH2+]CC[C@@H](Oc1ccccc1C)c1ccccc1,O,0,0,10.1575,['10.1575'],['chembl25']
3198,C[NH2+]CC[C@H](Oc1cccc2ccccc12)c1cccs1,O,0,0,9.97,['9.97'],['chembl25']
3199,C[NH2+]CCc1ccccc1,O,0,0,10.23,['10.23'],['datawarrior']
3200,C[NH2+]CCc1nc(-c2cn(C)c3ccccc23)no1,O,0,0,8.8,['8.8'],['chembl25']
3201,C[NH2+]Cc1cc(-c2ccc(F)cc2)n(S(=O)(=O)c2ccc(C)cc2)c1,O,0,0,9.4,['9.4'],['chembl25']
3202,C[NH2+]Cc1cc(-c2cccc(F)c2)n(S(=O)(=O)c2ccc(C)cc2)c1,O,0,0,9.31,['9.31'],['chembl25']
3203,C[NH2+]Cc1cc(-c2ccccc2)n(S(=O)(=O)c2ccc(C)cc2)c1,O,0,0,9.49,['9.49'],['chembl25']
3204,C[NH2+]Cc1cc(-c2ccccc2)n(S(=O)(=O)c2ccc(OC)cc2)c1,O,0,0,9.48,['9.48'],['chembl25']
3205,C[NH2+]Cc1cc(-c2ccccc2F)n(S(=O)(=O)c2ccc(C)cc2)c1,O,0,0,9.48,['9.48'],['chembl25']
3206,C[NH2+]Cc1cc(-c2ccccc2F)n(S(=O)(=O)c2cccnc2)c1,O,0,0,9.3,['9.3'],['chembl25']
3207,C[NH2+]Cc1cc(=O)oc2cc(OCc3cccc(Cl)c3)ccc12,O,0,0,7.18,['7.18'],['chembl25']
3208,C[NH2+]Cc1ccc(C)cc1,O,0,0,9.93,['9.93'],['datawarrior']
3209,C[NH2+]Cc1ccccc1,O,0,0,9.64,['9.64'],['datawarrior']
3210,C[NH2+]Cc1cn(S(=O)(=O)c2cc(C)ccn2)c(-c2cccnc2F)c1F,O,0,0,8.73,['8.73'],['chembl25']
3211,C[NH2+]Cc1cn(S(=O)(=O)c2cccnc2)c(-c2cccnc2F)c1F,O,0,0,8.54,['8.54'],['chembl25']
3212,C[NH2+]Cc1nc(-c2cn(C)c3ccccc23)no1,O,0,0,6.5,['6.5'],['chembl25']
3213,C[NH2+][C@@H](C)[C@@H](O)c1ccccc1,O,0,0,10.055,['10.055'],['chembl25']
3214,C[NH2+][C@@H](C)[C@H](O)c1ccccc1,O,0,0,9.555,['9.555'],"['datawarrior', 'chembl25']"
3215,C[NH2+][C@H](C)[C@H](O)c1ccccc1,O,0,0,9.61,['9.61'],['datawarrior']
3216,C[NH2+][C@H]1CCCC[C@@H]1O,O,0,0,10.16,['10.16'],['datawarrior']
3217,C[NH2+][C@H]1CC[C@@H](c2ccc(Cl)c(Cl)c2)c2ccc(C(N)=O)cc21,O,0,0,8.5,['8.5'],['chembl25']
3218,C[NH2+][C@H]1CC[C@@H](c2ccc(Cl)c(Cl)c2)c2ccccc21,O,0,0,9.23,['9.23'],['chembl25']
3219,C[NH2+][C@]1(C)[C@@H]2CC[C@@H](C2)C1(C)C,O,0,0,11.085,['11.085'],['chembl25']
3220,C[NH3+],O,0,0,10.695,['10.695'],"['datawarrior', 'chembl25']"
3221,C[S+](C)c1ccc([O-])cc1,O,0,0,7.31,['7.31'],['datawarrior']
3222,C[S+](C)c1cccc(O)c1,O,0,0,7.67,['7.67'],['datawarrior']
3223,C[n+]1c(N)cc[nH]c1=O,O,0,0,7.38,['7.38'],['datawarrior']
3224,C[n+]1c(NN)ccc2ccccc21,O,0,0,2.66,['2.66'],['datawarrior']