,Solute SMILES,Solvent SMILES,Solute CAS,Solute IUPAC,pKa (avg),pKa (all),Source
4897,O=C([O-])/C=C/c1cccc(Cl)c1,O,0,0,4.8,['4.8'],['chembl25']
4898,O=C([O-])/C=C/c1ccccc1,O,0,0,4.425,['4.425'],"['datawarrior', 'chembl25']"
4899,O=C([O-])/C=C/c1ccco1,O,0,0,4.29,['4.29'],['datawarrior']
4900,O=C([O-])/C=C/c1cccs1,O,0,0,4.25,['4.25'],['datawarrior']
4901,O=C([O-])/C=C/c1ccoc1,O,0,0,4.31,['4.31'],['datawarrior']
4902,O=C([O-])/C=C\SC1CCCCC1,O,0,0,4.95,['4.95'],['datawarrior']
4903,O=C([O-])/C=C\c1cccc(Cl)c1,O,0,0,3.71,['3.71'],['datawarrior']
4904,O=C([O-])/C=C\c1ccccc1,O,0,0,3.88,['3.88'],['datawarrior']
4905,O=C([O-])C#COc1ccccc1,O,0,0,3.09,['3.09'],['datawarrior']
4906,O=C([O-])C#CSc1ccccc1,O,0,0,2.11,['2.11'],['datawarrior']
4907,O=C([O-])C#Cc1ccccc1,O,0,0,2.26,['2.26'],['datawarrior']
4908,O=C([O-])C(=O)C(c1ccccc1)c1ccccc1,O,0,0,2.78,['2.78'],['datawarrior']
4909,O=C([O-])C(=O)Cc1ccccc1,O,0,0,2.68,['2.68'],['datawarrior']
4910,O=C([O-])C(CO)c1ccccc1,O,0,0,4.23,['4.23'],['datawarrior']
4911,O=C([O-])C(F)c1ccccc1,O,0,0,2.45,['2.45'],['datawarrior']
4912,O=C([O-])C(O)(c1ccccc1)c1ccccc1,O,0,0,3.05,['3.05'],['datawarrior']
4913,O=C([O-])C(O)c1ccccc1,O,0,0,4.865,['4.865'],['datawarrior']
4914,O=C([O-])C(c1ccc(-c2ccccc2)cc1)C(O)C1CCCCC1,O,0,0,4.19,['4.19'],['datawarrior']
4915,O=C([O-])C(c1ccc(-c2ccccc2)cc1)C(O)Cc1ccccc1,O,0,0,4.29,['4.29'],['datawarrior']
4916,O=C([O-])C(c1ccc(-c2ccccc2)cc1)C(O)c1ccccc1,O,0,0,4.25,['4.25'],['datawarrior']
4917,O=C([O-])C(c1ccc(-c2ccccc2)cc1)C1(O)CCCC1,O,0,0,3.65,['3.65'],['datawarrior']
4918,O=C([O-])C(c1ccc(-c2ccccc2)cc1)C1(O)CCCCC1,O,0,0,3.59,['3.59'],['datawarrior']
4919,O=C([O-])C(c1ccc(C2CCCCC2)cc1)C(O)c1ccccc1,O,0,0,4.24,['4.24'],['datawarrior']
4920,O=C([O-])C1(O)CCC1,O,0,0,3.88,['3.88'],['datawarrior']
4921,O=C([O-])C1(O)CCCC1,O,0,0,4.11,['4.11'],['datawarrior']
4922,O=C([O-])C1(O)CCCCC1,O,0,0,4.18,['4.18'],['datawarrior']
4923,O=C([O-])C1(O)CCCCCC1,O,0,0,4.04,['4.04'],['datawarrior']
4924,O=C([O-])C1(O)c2ccccc2-c2ccccc21,O,0,0,2.92,['2.92'],['datawarrior']
4925,O=C([O-])C12CC3(F)CC(F)(CC(F)(C3)C1)C2,O,0,0,3.24,['3.24'],['datawarrior']
4926,O=C([O-])C12CC3CC(CC(C3)C1)C2,O,0,0,4.95,['4.95'],['datawarrior']
4927,O=C([O-])C12CC3CC(CC(F)(C3)C1)C2,O,0,0,4.22,['4.22'],['datawarrior']
4928,O=C([O-])C12CCC(C1)C2,O,0,0,3.96,['3.96'],['datawarrior']
4929,O=C([O-])C12CCC(CC1)C2,O,0,0,4.89,['4.89'],['datawarrior']
4930,O=C([O-])C12CCC(O)(CC1)CC2,O,0,0,6.33,['6.33'],['datawarrior']
4931,O=C([O-])C1=C(CO)CC1,O,0,0,4.16,['4.16'],['datawarrior']
4932,O=C([O-])C1=C(CO)CCC1,O,0,0,4.54,['4.54'],['datawarrior']
4933,O=C([O-])C1=C/C=C\C=C/C=C\1,O,0,0,4.4,['4.4'],['datawarrior']
4934,O=C([O-])C1C2CCC1CC2,O,0,0,4.85,['4.85'],['datawarrior']
4935,O=C([O-])C1C=Cc2ccccc21,O,0,0,3.92,['3.92'],['datawarrior']
4936,O=C([O-])C1CC1,O,0,0,4.83,['4.83'],['datawarrior']
4937,O=C([O-])C1CC1(Br)Br,O,0,0,3.57,['3.57'],['datawarrior']
4938,O=C([O-])C1CC1(Cl)Cl,O,0,0,3.51,['3.51'],['datawarrior']
4939,O=C([O-])C1CCC1,O,0,0,4.79,['4.79'],['datawarrior']
4940,O=C([O-])C1CCCC1,O,0,0,4.99,['4.99'],['datawarrior']
4941,O=C([O-])C1CCCCC1,O,0,0,4.89,['4.89'],['datawarrior']
4942,O=C([O-])C1CCCCO1,O,0,0,3.84,['3.84'],['datawarrior']
4943,O=C([O-])C1CCCCn2nnnc21,O,0,0,3.4,['3.4'],['datawarrior']
4944,O=C([O-])C1CCCOC1,O,0,0,4.25,['4.25'],['datawarrior']
4945,O=C([O-])C1CCC[NH2+]1,O,0,0,10.61,['10.61'],['datawarrior']
4946,O=C([O-])C1CCCc2ccccc2O1,O,0,0,3.63,['3.63'],['datawarrior']
4947,O=C([O-])C1CCOc2ccc(Cl)cc21,O,0,0,4.9,['4.9'],['chembl25']
4948,O=C([O-])C1CC[NH2+]1,O,0,0,9.54,['9.54'],['datawarrior']
4949,O=C([O-])C1CCc2ccccc2O1,O,0,0,3.38,['3.38'],['datawarrior']
4950,O=C([O-])C1COCCO1,O,0,0,3.15,['3.15'],['datawarrior']
4951,O=C([O-])C1Cc2ccccc2O1,O,0,0,3.25,['3.25'],['datawarrior']
4952,O=C([O-])C1SCc2ccccc21,O,0,0,5.32,['5.32'],['datawarrior']
4953,O=C([O-])C1c2ccccc2-c2ccccc21,O,0,0,2.765,['2.765'],['datawarrior']
4954,O=C([O-])C1c2ccccc2Oc2ccccc21,O,0,0,3.89,['3.89'],['datawarrior']
4955,O=C([O-])C=C=Cc1ccccc1,O,0,0,3.7,['3.7'],['datawarrior']
4956,O=C([O-])CBr,O,0,0,2.87,['2.87'],"['datawarrior', 'chembl25']"
4957,O=C([O-])CC#Cc1ccccc1,O,0,0,3.44,['3.44'],['datawarrior']
4958,O=C([O-])CC(F)(F)F,O,0,0,3.06,['3.06'],['chembl25']
4959,O=C([O-])CC(O)c1ccccc1,O,0,0,4.4,['4.4'],['datawarrior']
4960,O=C([O-])CC(c1ccccc1)c1ccccc1Cl,O,0,0,4.7,['4.7'],['datawarrior']
4961,O=C([O-])CC1CCCCC1,O,0,0,4.8,['4.8'],['datawarrior']
4962,O=C([O-])CC1CCCCO1,O,0,0,4.39,['4.39'],['datawarrior']
4963,O=C([O-])CC1NC(=O)c2ccccc2O1,O,0,0,4.9,['4.9'],['datawarrior']
4964,O=C([O-])CCBr,O,0,0,3.86,['3.86'],['datawarrior']
4965,O=C([O-])CCC(=O)c1ccc(-c2ccccc2)cc1,O,0,0,4.46,['4.46'],['datawarrior']
4966,O=C([O-])CCC(=O)c1ccc2ccccc2c1,O,0,0,4.96,['4.96'],['datawarrior']
4967,O=C([O-])CCC(=O)c1cccc2ccccc12,O,0,0,4.48,['4.48'],['datawarrior']
4968,O=C([O-])CCC1CCCCC1,O,0,0,4.91,['4.91'],['datawarrior']
4969,O=C([O-])CCCC1CCCCC1,O,0,0,4.95,['4.95'],['datawarrior']
4970,O=C([O-])CCCCC1CCSS1,O,0,0,4.82,['4.82'],['datawarrior']
4971,O=C([O-])CCCC[P+](c1ccccc1)(c1ccccc1)c1ccccc1,O,0,0,5.19,['5.19'],['chembl25']
4972,O=C([O-])CCCCc1ccccc1,O,0,0,4.88,['4.88'],['datawarrior']
4973,O=C([O-])CCCN1C(=O)S/C(=C\C=C\c2ccccc2)C1=O,O,0,0,3.89,['3.89'],['chembl25']
4974,O=C([O-])CCCO,O,0,0,4.72,['4.72'],['chembl25']
4975,O=C([O-])CCCOC(=O)CCCBr,O,0,0,4.6,['4.6'],['datawarrior']
4976,O=C([O-])CCCP,O,0,0,4.53,['4.53'],['datawarrior']
4977,O=C([O-])CCC[C@@H]1c2ccccc2C[C@H]1NC(=O)c1cc2cc(F)ccc2[nH]1,O,0,0,4.24,['4.24'],['chembl25']
4978,O=C([O-])CCCc1c[nH]c2ccccc12,O,0,0,4.82,['4.82'],['datawarrior']
4979,O=C([O-])CCCc1ccc(N(CCCl)CCCl)cc1,O,0,0,5.8,['5.8'],['chembl25']
4980,O=C([O-])CCCc1ccccc1,O,0,0,4.78,['4.78'],['datawarrior']
4981,O=C([O-])CCCc1cccs1,O,0,0,4.54,['4.54'],['datawarrior']
4982,O=C([O-])CCCl,O,0,0,4.04,['4.04'],['datawarrior']
4983,O=C([O-])CCP,O,0,0,4.23,['4.23'],['datawarrior']
4984,O=C([O-])CC[C@H]1CC[C@H](O)CC1,O,0,0,4.86,['4.86'],['datawarrior']
4985,O=C([O-])CCc1c[nH]c2ccccc12,O,0,0,4.87,['4.87'],['datawarrior']
4986,O=C([O-])CCc1ccc(Br)cc1,O,0,0,4.33,['4.33'],['chembl25']
4987,O=C([O-])CCc1ccc(Cl)cc1,O,0,0,4.65,['4.65'],['datawarrior']
4988,O=C([O-])CCc1ccccc1,O,0,0,4.615,['4.615'],"['datawarrior', 'chembl25']"
4989,O=C([O-])CCc1ccco1,O,0,0,4.36,['4.36'],['datawarrior']
4990,O=C([O-])CCc1cccs1,O,0,0,4.34,['4.34'],['datawarrior']
4991,O=C([O-])CCc1ccoc1,O,0,0,4.44,['4.44'],['datawarrior']
4992,O=C([O-])CCc1ccsc1,O,0,0,4.45,['4.45'],['datawarrior']
4993,O=C([O-])CCc1nc(-c2ccccc2)c(-c2ccccc2)o1,O,0,0,5.05,['5.05'],['chembl25']
4994,O=C([O-])CCc1nnnn1-c1ccccc1,O,0,0,5.0,['5.0'],['datawarrior']
4995,O=C([O-])CCl,O,0,0,2.85,['2.85'],['datawarrior']
4996,O=C([O-])CF,O,0,0,2.61,['2.61'],"['datawarrior', 'chembl25']"
4997,O=C([O-])CI,O,0,0,3.16,['3.16'],['datawarrior']
4998,O=C([O-])CN(Cc1ccccc1)S(=O)(=O)c1ccc(OC(F)F)cc1,O,0,0,3.4,['3.4'],['chembl25']
4999,O=C([O-])CN1C(=O)c2cccc3cccc(c23)C1=O,O,0,0,4.8,['4.8'],['chembl25']
5000,O=C([O-])CO,O,0,0,3.67,['3.67'],['datawarrior']
5001,O=C([O-])COc1cc2c(c(Cl)c1Cl)C(=O)C(C1CCCC1)C2,O,0,0,3.9,['3.9'],['chembl25']
5002,O=C([O-])COc1cc2c(c(Cl)c1Cl)C(=O)C(CC1CCCC1)C2,O,0,0,3.8,['3.8'],['chembl25']
5003,O=C([O-])COc1cc2c(c(Cl)c1Cl)C1=CC(=O)CCC1(C1CCCC1)C2,O,0,0,3.83,['3.83'],['chembl25']
5004,O=C([O-])COc1ccccc1,O,0,0,3.175,['3.175'],"['datawarrior', 'chembl25']"
5005,O=C([O-])CP,O,0,0,4.07,['4.07'],['datawarrior']
5006,O=C([O-])CS/C=C/c1ccccc1,O,0,0,3.5,['3.5'],['datawarrior']
5007,O=C([O-])CSC(c1ccccc1)(c1ccccc1)c1ccccc1,O,0,0,4.32,['4.32'],['datawarrior']
5008,O=C([O-])CSCCc1ccccc1,O,0,0,3.8,['3.8'],['datawarrior']
5009,O=C([O-])CSCc1ccccc1,O,0,0,3.73,['3.73'],['datawarrior']
5010,O=C([O-])CSc1ccccc1,O,0,0,3.52,['3.52'],['datawarrior']
5011,O=C([O-])C[C@@H]1c2ccccc2C[C@H]1NC(=O)c1cc2cc(F)ccc2[nH]1,O,0,0,3.95,['3.95'],['chembl25']
5012,O=C([O-])C[C@]1(O)C[C@@H]2C=C[C@H]1C2,O,0,0,4.36,['4.36'],['datawarrior']
5013,O=C([O-])C[C@]1(O)C[C@@H]2CC[C@H]1C2,O,0,0,4.46,['4.46'],['datawarrior']
5014,O=C([O-])C[C@]1(O)C[C@H]2C=C[C@@H]1C2,O,0,0,4.36,['4.36'],['datawarrior']
5015,O=C([O-])C[C@]1(O)C[C@H]2CC[C@@H]1C2,O,0,0,4.57,['4.57'],['datawarrior']
5016,O=C([O-])C[NH+]1CCCCC1,O,0,0,10.35,['10.35'],['datawarrior']
5017,O=C([O-])Cc1c(-c2ccccc2)ccc2ccccc12,O,0,0,6.9,['6.9'],['chembl25']
5018,O=C([O-])Cc1c[nH]c2ccccc12,O,0,0,4.39,['4.39'],['datawarrior']
5019,O=C([O-])Cc1cc(-c2ccccc2)c2ccccc2c1,O,0,0,7.0,['7.0'],['chembl25']
5020,O=C([O-])Cc1cc(-c2ccccc2)cc2ccccc12,O,0,0,6.7,['6.7'],['chembl25']
5021,O=C([O-])Cc1cc(F)ccc1Nc1c(Cl)cccc1Cl,O,0,0,4.02,['4.02'],['chembl25']
5022,O=C([O-])Cc1cc2ccccc2cc1-c1ccccc1,O,0,0,7.1,['7.1'],['chembl25']
5023,O=C([O-])Cc1ccc(-c2ccccc2)c2ccccc12,O,0,0,6.8,['6.8'],['chembl25']
5024,O=C([O-])Cc1ccc(-c2ccccc2)cc1,O,0,0,4.46,['4.46'],['datawarrior']
5025,O=C([O-])Cc1ccc(Cl)s1,O,0,0,3.89,['3.89'],['datawarrior']
5026,O=C([O-])Cc1ccc2c(-c3ccccc3)cccc2c1,O,0,0,6.6,['6.6'],['chembl25']
5027,O=C([O-])Cc1ccc2cc(-c3ccccc3)ccc2c1,O,0,0,6.6,['6.6'],['chembl25']
5028,O=C([O-])Cc1ccc2ccc(-c3ccccc3)cc2c1,O,0,0,6.7,['6.7'],['chembl25']
5029,O=C([O-])Cc1ccc2cccc(-c3ccccc3)c2c1,O,0,0,6.8,['6.8'],['chembl25']
5030,O=C([O-])Cc1ccc2ccccc2c1,O,0,0,4.26,['4.26'],['datawarrior']
5031,O=C([O-])Cc1ccc2ccccc2c1-c1ccccc1,O,0,0,7.2,['7.2'],['chembl25']
5032,O=C([O-])Cc1cccc2c(-c3ccccc3)cccc12,O,0,0,6.7,['6.7'],['chembl25']
5033,O=C([O-])Cc1cccc2cc(-c3ccccc3)ccc12,O,0,0,6.9,['6.9'],['chembl25']
5034,O=C([O-])Cc1cccc2ccc(-c3ccccc3)cc12,O,0,0,6.9,['6.9'],['chembl25']
5035,O=C([O-])Cc1cccc2ccccc12,O,0,0,4.24,['4.24'],['datawarrior']
5036,O=C([O-])Cc1cccc2oc(-c3ccc(Cl)cc3)nc12,O,0,0,6.1,['6.1'],['chembl25']
5037,O=C([O-])Cc1cccc2oc(-c3ccccc3)nc12,O,0,0,6.3,['6.3'],['chembl25']
5038,O=C([O-])Cc1ccccc1,O,0,0,4.27,['4.27'],['datawarrior']
5039,O=C([O-])Cc1ccccc1Nc1c(Cl)cccc1Br,O,0,0,4.2,['4.2'],['chembl25']
5040,O=C([O-])Cc1ccccc1Nc1c(Cl)cccc1Cl,O,0,0,4.256,['4.256'],['chembl25']
5041,O=C([O-])Cc1ccccc1Nc1c(Cl)cccc1I,O,0,0,4.24,['4.24'],['chembl25']
5042,O=C([O-])Cc1ccccc1Nc1c(F)cccc1F,O,0,0,4.09,['4.09'],['chembl25']
5043,O=C([O-])Cc1ccccc1Nc1cc(Cl)cc(Cl)c1,O,0,0,4.31,['4.31'],['chembl25']
5044,O=C([O-])Cc1ccccc1Nc1cc(Cl)ccc1Cl,O,0,0,4.1,['4.1'],['chembl25']
5045,O=C([O-])Cc1ccccc1Nc1ccc(Cl)c(Cl)c1,O,0,0,4.3,['4.3'],['chembl25']
5046,O=C([O-])Cc1ccccc1Nc1cccc(Cl)c1Cl,O,0,0,4.2,['4.2'],['chembl25']
5047,O=C([O-])Cc1ccccc1Nc1ccccc1,O,0,0,4.1,['4.1'],['chembl25']
5048,O=C([O-])Cc1ccco1,O,0,0,3.72,['3.72'],['datawarrior']
5049,O=C([O-])Cc1cccs1,O,0,0,3.85,['3.85'],['datawarrior']
5050,O=C([O-])Cc1ccoc1,O,0,0,4.07,['4.07'],['datawarrior']
5051,O=C([O-])Cc1ccsc1,O,0,0,4.07,['4.07'],['datawarrior']
5052,O=C([O-])Cc1nn(Cc2nc3cc(C(F)(F)F)ccc3s2)c(=O)c2ccccc12,O,0,0,3.0,['3.0'],['chembl25']
5053,O=C([O-])Cc1nnnn1-c1ccccc1,O,0,0,3.1,['3.1'],['datawarrior']
5054,O=C([O-])Cn1c2ccccc2c2ccccc21,O,0,0,3.55,['3.55'],['datawarrior']
5055,O=C([O-])Cn1ccc2ccccc21,O,0,0,3.4,['3.4'],['datawarrior']
5056,O=C([O-])Cn1cccc1,O,0,0,3.3,['3.3'],['datawarrior']
5057,O=C([O-])Cn1cnnn1,O,0,0,2.27,['2.27'],['datawarrior']
5058,O=C([O-])Cn1ncnn1,O,0,0,2.12,['2.12'],['datawarrior']
5059,O=C([O-])Cn1nnnc1-c1ccccc1,O,0,0,2.11,['2.11'],['datawarrior']
5060,O=C([O-])[C@@H]1CCCC[C@@H]1O,O,0,0,4.8,['4.8'],['datawarrior']
5061,O=C([O-])[C@@H]1CCC[C@H](O)C1,O,0,0,4.6,['4.6'],['datawarrior']
5062,O=C([O-])[C@@H]1CCC[NH2+]1,O,0,0,10.56,['10.56'],['datawarrior']
5063,O=C([O-])[C@@H]1C[C@@H](O)C[NH2+]1,O,0,0,9.64,['9.64'],['datawarrior']
5064,O=C([O-])[C@@H]1C[C@@H]1Br,O,0,0,4.09,['4.09'],['datawarrior']
5065,O=C([O-])[C@@H]1C[C@@H]1Cl,O,0,0,4.12,['4.12'],['datawarrior']
5066,O=C([O-])[C@@H]1C[C@@H]1c1ccccc1,O,0,0,4.82,['4.82'],['datawarrior']
5067,O=C([O-])[C@@H]1C[C@H](Cc2cccc(F)c2)C[NH2+]1,O,0,0,10.1,['10.1'],['chembl25']
5068,O=C([O-])[C@@H]1C[C@H](Oc2cccc(Cl)c2)C[NH2+]1,O,0,0,8.9,['8.9'],['chembl25']
5069,O=C([O-])[C@@H]1O[C@H](Oc2ccc(-c3ccccc3)cc2)[C@@H](O)[C@H](O)[C@H]1O,O,0,0,3.1,['3.1'],['datawarrior']
5070,O=C([O-])[C@@H]1O[C@H](Oc2ccc(Br)cc2)[C@@H](O)[C@H](O)[C@H]1O,O,0,0,3.02,['3.02'],['datawarrior']
5071,O=C([O-])[C@@H]1O[C@H](Oc2ccc(I)cc2)[C@@H](O)[C@H](O)[C@H]1O,O,0,0,3.28,['3.28'],['datawarrior']
5072,O=C([O-])[C@@H]1O[C@H](Oc2ccc3[nH]c(=O)ccc3c2)[C@@H](O)[C@H](O)[C@H]1O,O,0,0,3.41,['3.41'],['datawarrior']
5073,O=C([O-])[C@@H]1O[C@H](Oc2ccc3[nH]ccc(=O)c3c2)[C@@H](O)[C@H](O)[C@H]1O,O,0,0,3.425,['3.425'],['datawarrior']
5074,O=C([O-])[C@@]1(Cl)[C@H]2CCC[C@H]21,O,0,0,2.82,['2.82'],['datawarrior']
5075,O=C([O-])[C@H](O)c1ccccc1,O,0,0,3.41,['3.41'],['datawarrior']
5076,O=C([O-])[C@H]1CCCC[C@@H]1O,O,0,0,4.68,['4.68'],['datawarrior']
5077,O=C([O-])[C@H]1CCC[C@H](O)C1,O,0,0,4.82,['4.82'],['datawarrior']
5078,O=C([O-])[C@H]1CC[C@@H](O)CC1,O,0,0,4.84,['4.84'],['datawarrior']
5079,O=C([O-])[C@H]1CC[C@H](O)CC1,O,0,0,4.68,['4.68'],['datawarrior']
5080,O=C([O-])[C@H]1C[C@@H]1Cl,O,0,0,4.12,['4.12'],['datawarrior']
5081,O=C([O-])[C@H]1C[C@@H]1c1ccc(Cl)cc1,O,0,0,4.53,['4.53'],['datawarrior']
5082,O=C([O-])[C@H]1C[C@@H]1c1cccc(Cl)c1,O,0,0,4.51,['4.51'],['datawarrior']
5083,O=C([O-])[C@H]1C[C@@H]1c1ccccc1,O,0,0,4.54,['4.54'],['datawarrior']
5084,O=C([O-])[C@H]1C[C@@H]2CC[C@H]1C2,O,0,0,5.02,['5.02'],['datawarrior']
5085,O=C([O-])[C@H]1C[C@H]2CC[C@@H]1C2,O,0,0,5.08,['5.08'],['datawarrior']
5086,O=C([O-])[C@H]1[C@@H]2C=C[C@H]1CC2,O,0,0,4.58,['4.58'],['datawarrior']
5087,O=C([O-])[C@]1(Cl)[C@H]2CCC[C@H]21,O,0,0,3.03,['3.03'],['datawarrior']
5088,O=C([O-])c1c2ccccc2cc2ccccc12,O,0,0,3.65,['3.65'],['datawarrior']
5089,O=C([O-])c1c2ccccc2nc2ccccc12,O,0,0,4.0,['4.0'],['datawarrior']
5090,O=C([O-])c1c[nH]c2cc(Cl)c(-c3ccc(C4(O)CCC4)cc3)cc12,O,0,0,4.7,['4.7'],['chembl25']
5091,O=C([O-])c1c[nH]c2cc(Cl)c(-c3ccc(C4CCCCO4)cc3)cc12,O,0,0,4.9,['4.9'],['chembl25']
5092,O=C([O-])c1c[nH]c2cc(Cl)c(-c3ccc(OCCO)cc3)cc12,O,0,0,4.8,['4.8'],['chembl25']
5093,O=C([O-])c1c[nH]c2cc(F)c(-c3ccc(C4(O)CCC4)cc3)c(F)c12,O,0,0,4.9,['4.9'],['chembl25']
5094,O=C([O-])c1c[nH]c2cc(F)c(-c3ccc(C4(O)CCC4)cc3)cc12,O,0,0,4.8,['4.8'],['chembl25']
5095,O=C([O-])c1c[nH]c2cc(F)c(-c3ccc([C@@H]4CCCCO4)cc3)c(F)c12,O,0,0,5.0,['5.0'],['chembl25']
5096,O=C([O-])c1c[nH]c2ccccc12,O,0,0,5.27,['5.27'],['datawarrior']
5097,O=C([O-])c1cc(-c2ccc(F)cc2F)ccc1O,O,0,0,3.15,['3.15'],['chembl25']
5098,O=C([O-])c1cc(-c2ccccc2)oc(=O)c1,O,0,0,3.3,['3.3'],['datawarrior']
5099,O=C([O-])c1cc(Br)ccc1O,O,0,0,3.9,['3.9'],['chembl25']
5100,O=C([O-])c1cc(Br)cs1,O,0,0,3.11,['3.11'],['datawarrior']
5101,O=C([O-])c1cc(Cl)ccc1O,O,0,0,3.9,['3.9'],['chembl25']
5102,O=C([O-])c1cc(Cl)co1,O,0,0,2.69,['2.69'],['datawarrior']
5103,O=C([O-])c1cc(I)ccc1O,O,0,0,3.9,['3.9'],['chembl25']
5104,O=C([O-])c1cc2ccccc2[nH]1,O,0,0,3.79,['3.79'],['datawarrior']
5105,O=C([O-])c1cc2ccccc2cc1O,O,0,0,2.71,['2.71'],['datawarrior']
5106,O=C([O-])c1cc2ccccc2o1,O,0,0,2.84,['2.84'],['datawarrior']
5107,O=C([O-])c1cc2ccccc2oc1=O,O,0,0,3.6,['3.6'],['chembl25']
5108,O=C([O-])c1cc2ccccc2s1,O,0,0,3.1,['3.1'],['datawarrior']
5109,O=C([O-])c1cc2occc2[nH]1,O,0,0,4.045,['4.045'],['chembl25']
5110,O=C([O-])c1cc2sccc2[nH]1,O,0,0,3.88,['3.88'],['chembl25']
5111,O=C([O-])c1cc[n+]([O-])cc1,O,0,0,2.86,['2.86'],['datawarrior']
5112,O=C([O-])c1cc[nH]c1,O,0,0,4.98,['4.98'],['datawarrior']
5113,O=C([O-])c1ccc(-c2ccc(Cl)c(O[C@H]3O[C@H](CO)[C@@H](O)[C@H](O)[C@@H]3O)c2)cc1,O,0,0,3.41,['3.41'],['chembl25']
5114,O=C([O-])c1ccc(-c2ccc(O[C@H]3O[C@H](CO)[C@@H](O)[C@H](O)[C@@H]3O)c(Cl)c2)cc1,O,0,0,3.98,['3.98'],['chembl25']
5115,O=C([O-])c1ccc(-c2ccc(O[C@H]3O[C@H](CO)[C@@H](O)[C@H](O)[C@@H]3O)cc2)cc1,O,0,0,3.88,['3.88'],['chembl25']
5116,O=C([O-])c1ccc(-c2ccc(O[C@H]3O[C@H](CO)[C@@H](O)[C@H](O)[C@@H]3O)cc2Cl)cc1,O,0,0,3.95,['3.95'],['chembl25']
5117,O=C([O-])c1ccc(-c2cccc(O[C@H]3O[C@H](CO)[C@@H](O)[C@H](O)[C@@H]3O)c2)cc1,O,0,0,3.6,['3.6'],['chembl25']
5118,O=C([O-])c1ccc(/N=C/c2ccccc2)cc1,O,0,0,4.47,['4.47'],['datawarrior']
5119,O=C([O-])c1ccc(=O)oc1,O,0,0,3.26,['3.26'],['datawarrior']
5120,O=C([O-])c1ccc(Br)cc1,O,0,0,3.93,['3.93'],"['datawarrior', 'chembl25']"
5121,O=C([O-])c1ccc(Br)s1,O,0,0,3.3,['3.3'],['datawarrior']
5122,O=C([O-])c1ccc(C2CC2)cc1,O,0,0,4.42,['4.42'],['datawarrior']
5123,O=C([O-])c1ccc(CCl)cc1,O,0,0,4.13,['4.13'],['datawarrior']
5124,O=C([O-])c1ccc(CO)cc1,O,0,0,4.18,['4.18'],['datawarrior']
5125,O=C([O-])c1ccc(Cl)c(Cl)c1,O,0,0,3.9,['3.9'],['chembl25']
5126,O=C([O-])c1ccc(Cl)cc1,O,0,0,3.9375,['3.9375'],"['datawarrior', 'chembl25']"
5127,O=C([O-])c1ccc(Cl)cc1Cl,O,0,0,2.74,['2.74'],['datawarrior']
5128,O=C([O-])c1ccc(Cl)s1,O,0,0,3.41,['3.41'],['datawarrior']
5129,O=C([O-])c1ccc(F)cc1,O,0,0,4.15,['4.15'],"['datawarrior', 'chembl25']"
5130,O=C([O-])c1ccc(I)cc1,O,0,0,3.93,['3.93'],"['datawarrior', 'chembl25']"
5131,O=C([O-])c1ccc(I)o1,O,0,0,2.94,['2.94'],['datawarrior']
5132,O=C([O-])c1ccc(OCc2ccccc2)cc1,O,0,0,4.44,['4.44'],['datawarrior']
5133,O=C([O-])c1ccc(Oc2ccccc2)cc1,O,0,0,4.52,['4.52'],['datawarrior']
5134,O=C([O-])c1ccc2[nH]ccc2c1,O,0,0,4.1,['4.1'],['datawarrior']
5135,O=C([O-])c1ccc2cc3ccccc3cc2c1,O,0,0,4.18,['4.18'],['datawarrior']
5136,O=C([O-])c1ccc2ccccc2c1,O,0,0,4.325,['4.325'],"['datawarrior', 'chembl25']"
5137,O=C([O-])c1ccc2ccccc2n1,O,0,0,4.97,['4.97'],['datawarrior']
5138,O=C([O-])c1ccc[n+]([O-])c1,O,0,0,2.95,['2.95'],['datawarrior']
5139,O=C([O-])c1ccc[nH]1,O,0,0,4.35,['4.35'],['datawarrior']
5140,O=C([O-])c1cccc(=O)cc1,O,0,0,3.2,['3.2'],['datawarrior']
5141,O=C([O-])c1cccc(Br)c1,O,0,0,3.863333,['3.863333'],"['datawarrior', 'chembl25']"
5142,O=C([O-])c1cccc(C(F)(F)F)c1,O,0,0,3.79,['3.79'],['chembl25']
5143,O=C([O-])c1cccc(C2CC2)c1,O,0,0,4.28,['4.28'],['datawarrior']
5144,O=C([O-])c1cccc(Cl)c1,O,0,0,3.866667,['3.866667'],"['datawarrior', 'chembl25']"
5145,O=C([O-])c1cccc(F)c1,O,0,0,3.885,['3.885'],"['datawarrior', 'chembl25']"
5146,O=C([O-])c1cccc(I)c1,O,0,0,3.876667,['3.876667'],"['datawarrior', 'chembl25']"
5147,O=C([O-])c1cccc(Oc2ccccc2)c1,O,0,0,3.95,['3.95'],['datawarrior']
5148,O=C([O-])c1cccc2cc3ccccc3cc12,O,0,0,3.7,['3.7'],['datawarrior']
5149,O=C([O-])c1cccc2ccccc12,O,0,0,3.7,['3.7'],['datawarrior']
5150,O=C([O-])c1cccc[n+]1[O-],O,0,0,3.54,['3.54'],['datawarrior']
5151,O=C([O-])c1ccccc1,O,0,0,4.018571,['4.018571'],"['datawarrior', 'chembl25']"
5152,O=C([O-])c1ccccc1-c1ccccc1,O,0,0,3.46,['3.46'],['datawarrior']
5153,O=C([O-])c1ccccc1Br,O,0,0,2.93,['2.93'],['datawarrior']
5154,O=C([O-])c1ccccc1C(=O)c1ccccc1,O,0,0,3.54,['3.54'],['datawarrior']
5155,O=C([O-])c1ccccc1CO,O,0,0,3.84,['3.84'],['datawarrior']
5156,O=C([O-])c1ccccc1Cl,O,0,0,3.43,['3.43'],"['datawarrior', 'chembl25']"
5157,O=C([O-])c1ccccc1F,O,0,0,3.435,['3.435'],"['datawarrior', 'chembl25']"
5158,O=C([O-])c1ccccc1I,O,0,0,2.93,['2.93'],['datawarrior']
5159,O=C([O-])c1ccccc1O,O,0,0,3.354167,['3.354167'],"['datawarrior', 'chembl25']"
5160,O=C([O-])c1ccccc1O[C@H]1O[C@@H](CO)[C@H](O)[C@@H](O)[C@@H]1O,O,0,0,3.6,['3.6'],['datawarrior']
5161,O=C([O-])c1ccccc1Oc1ccccc1,O,0,0,3.53,['3.53'],['datawarrior']
5162,O=C([O-])c1cccccc1=O,O,0,0,3.73,['3.73'],['datawarrior']
5163,O=C([O-])c1ccccn1,O,0,0,5.32,['5.32'],['datawarrior']
5164,O=C([O-])c1cccnn1,O,0,0,3.0,['3.0'],['datawarrior']
5165,O=C([O-])c1ccco1,O,0,0,3.18,['3.18'],['datawarrior']
5166,O=C([O-])c1cccs1,O,0,0,3.46,['3.46'],['datawarrior']
5167,O=C([O-])c1ccn[nH]1,O,0,0,3.84,['3.84'],['datawarrior']
5168,O=C([O-])c1ccnc2ccccc12,O,0,0,4.76,['4.76'],['datawarrior']
5169,O=C([O-])c1ccnnc1,O,0,0,2.8,['2.8'],['datawarrior']
5170,O=C([O-])c1ccoc1,O,0,0,3.94,['3.94'],['datawarrior']
5171,O=C([O-])c1ccsc1,O,0,0,4.03,['4.03'],['datawarrior']
5172,O=C([O-])c1cnc(Br)s1,O,0,0,2.96,['2.96'],['datawarrior']
5173,O=C([O-])c1cnc(Cl)s1,O,0,0,3.0,['3.0'],['datawarrior']
5174,O=C([O-])c1cnccn1,O,0,0,2.8,['2.8'],"['datawarrior', 'chembl25']"
5175,O=C([O-])c1cncs1,O,0,0,2.99,['2.99'],['datawarrior']
5176,O=C([O-])c1cnoc1,O,0,0,3.39,['3.39'],['datawarrior']
5177,O=C([O-])c1coc2ccccc12,O,0,0,4.18,['4.18'],['datawarrior']
5178,O=C([O-])c1coc2ccccc2c1=O,O,0,0,8.85,['8.85'],['chembl25']
5179,O=C([O-])c1csc(Br)c1,O,0,0,3.7,['3.7'],['datawarrior']
5180,O=C([O-])c1csc(Br)n1,O,0,0,3.28,['3.28'],['datawarrior']
5181,O=C([O-])c1csc(Cl)c1,O,0,0,3.8,['3.8'],['datawarrior']