,solute,solute SMILES,computed CAS,computed IUPAC,solvent,solvent SMILES,pka,ref
1265,110-85-0,C1CNCC[NH2+]1,8057-14-5,piperazin-1-ium,DMSO,CS(=O)C,10.5,Bases_pKa_values_MeCN_DMSO_THF_Water.pdf
1328,110-85-0,C1CNCC[NH2+]1,8057-14-5,piperazin-1-ium,MeCN,CC#N,18.69,Bases_pKa_values_MeCN_DMSO_THF_Water.pdf
1396,110-85-0,C1CNCC[NH2+]1,8057-14-5,piperazin-1-ium,THF,C1CCOC1,14.2,Bases_pKa_values_MeCN_DMSO_THF_Water.pdf
706,Me-TCNP,CC(=C(C#N)C#N)C(C#N)C#N,24943-63-3,"2-methylprop-1-ene-1,1,3,3-tetracarbonitrile",MeCN,CC#N,7.36,pKa_values_of_acids_in_acetonitrile.pdf
1620,Me-TCNP,CC(=C(C#N)C#N)C(C#N)C#N,24943-63-3,"2-methylprop-1-ene-1,1,3,3-tetracarbonitrile",DCE,C(CCl)Cl,36.4,leito_acids
772,653-22-5,CC(=O)NC1=C(C(=C(C(=C1F)F)F)F)F,653-22-5,"N-(2,3,4,5,6-pentafluorophenyl)acetamide",MeCN,CC#N,26.45,Ejoc202001649-sup-00001-misc_information.pdf
1034,653-22-5,CC(=O)NC1=C(C(=C(C(=C1F)F)F)F)F,653-22-5,"N-(2,3,4,5,6-pentafluorophenyl)acetamide",DMSO,CS(=O)C,14.3,Ejoc202001649-sup-00001-misc_information.pdf
54,Acetic acid,CC(=O)O,64-19-7,acetic acid,MeCN,CC#N,23.51,MeCN_Acids_COSMO-RS_2008_Table.pdf
236,Acetic acid,CC(=O)O,64-19-7,acetic acid,MeCN,CC#N,23.51,pKa_values_of_acids_and_bases_in_MeCN_DCE_DMSO_H2O_THF_C7_DME.pdf
268,Acetic acid,CC(=O)O,64-19-7,acetic acid,DMSO,CS(=O)C,12.6,pKa_values_of_acids_and_bases_in_MeCN_DCE_DMSO_H2O_THF_C7_DME.pdf
284,Acetic acid,CC(=O)O,64-19-7,acetic acid,H2O,O,4.75,pKa_values_of_acids_and_bases_in_MeCN_DCE_DMSO_H2O_THF_C7_DME.pdf
294,Acetic acid,CC(=O)O,64-19-7,acetic acid,THF,C1CCOC1,22.48,pKa_values_of_acids_and_bases_in_MeCN_DCE_DMSO_H2O_THF_C7_DME.pdf
577,Acetic acid,CC(=O)O,64-19-7,acetic acid,MeCN,CC#N,23.5,pKa_values_of_acids_in_acetonitrile.pdf
807,64-19-7,CC(=O)O,64-19-7,acetic acid,MeCN,CC#N,23.5,Ejoc202001649-sup-00001-misc_information.pdf
992,64-19-7,CC(=O)O,64-19-7,acetic acid,H2O,O,4.76,Ejoc202001649-sup-00001-misc_information.pdf
1052,64-19-7,CC(=O)O,64-19-7,acetic acid,DMSO,CS(=O)C,12.3,Ejoc202001649-sup-00001-misc_information.pdf
1146,64-19-7,CC(=O)O,64-19-7,acetic acid,DMF,CN(C)C=O,13.5,Ejoc202001649-sup-00001-misc_information.pdf
1438,Acetic acid,CC(=O)O,64-19-7,acetic acid,MeCN,CC#N,23.51,leito_acids
520,Indoxyl acetate,CC(=O)OC1=CNC2=CC=CC=C21,608-08-2,1H-indol-3-yl acetate,MeCN,CC#N,29.97,pKa_values_of_acids_in_acetonitrile.pdf
749,608-08-2,CC(=O)OC1=CNC2=CC=CC=C21,608-08-2,1H-indol-3-yl acetate,MeCN,CC#N,29.97,Ejoc202001649-sup-00001-misc_information.pdf
214,"2,6-Bis(1,1-dimethylethyl)-4-nitrophenol",CC(C)(C)C1=CC(=CC(=C1O)C(C)(C)C)[N+](=O)[O-],728-40-5,"2,6-ditert-butyl-4-nitrophenol",MeCN,CC#N,19,MeCN_Acids_COSMO-RS_2008_Table.pdf
206,"4-(1,1-Dimethylethyl)-phenol",CC(C)(C)C1=CC=C(C=C1)O,98-54-4,4-tert-butylphenol,MeCN,CC#N,27.48,MeCN_Acids_COSMO-RS_2008_Table.pdf
1225,81675-81-2,CC(C)(C)N[P+](N(C)C)(N(C)C)N(C)C,-,(tert-butylamino)-tris(dimethylamino)phosphanium,H2O,O,17,Bases_pKa_values_MeCN_DMSO_THF_Water.pdf
1286,81675-81-2,CC(C)(C)N[P+](N(C)C)(N(C)C)N(C)C,-,(tert-butylamino)-tris(dimethylamino)phosphanium,DMSO,CS(=O)C,15.7,Bases_pKa_values_MeCN_DMSO_THF_Water.pdf
1358,81675-81-2,CC(C)(C)N[P+](N(C)C)(N(C)C)N(C)C,-,(tert-butylamino)-tris(dimethylamino)phosphanium,MeCN,CC#N,26.98,Bases_pKa_values_MeCN_DMSO_THF_Water.pdf
1417,81675-81-2,CC(C)(C)N[P+](N(C)C)(N(C)C)N(C)C,-,(tert-butylamino)-tris(dimethylamino)phosphanium,THF,C1CCOC1,18.9,Bases_pKa_values_MeCN_DMSO_THF_Water.pdf
1229,111324-04-0,CC(C)(C)N[P+](N=P(N(C)C)(N(C)C)N(C)C)(N=P(N(C)C)(N(C)C)N(C)C)N=P(N(C)C)(N(C)C)N(C)C,-,(tert-butylamino)-tris[[tris(dimethylamino)-_5-phosphanylidene]amino]phosphanium,H2O,O,30,Bases_pKa_values_MeCN_DMSO_THF_Water.pdf
1290,111324-04-0,CC(C)(C)N[P+](N=P(N(C)C)(N(C)C)N(C)C)(N=P(N(C)C)(N(C)C)N(C)C)N=P(N(C)C)(N(C)C)N(C)C,-,(tert-butylamino)-tris[[tris(dimethylamino)-_5-phosphanylidene]amino]phosphanium,DMSO,CS(=O)C,30.25,Bases_pKa_values_MeCN_DMSO_THF_Water.pdf
1362,111324-04-0,CC(C)(C)N[P+](N=P(N(C)C)(N(C)C)N(C)C)(N=P(N(C)C)(N(C)C)N(C)C)N=P(N(C)C)(N(C)C)N(C)C,-,(tert-butylamino)-tris[[tris(dimethylamino)-_5-phosphanylidene]amino]phosphanium,MeCN,CC#N,42.7,Bases_pKa_values_MeCN_DMSO_THF_Water.pdf
1421,111324-04-0,CC(C)(C)N[P+](N=P(N(C)C)(N(C)C)N(C)C)(N=P(N(C)C)(N(C)C)N(C)C)N=P(N(C)C)(N(C)C)N(C)C,-,(tert-butylamino)-tris[[tris(dimethylamino)-_5-phosphanylidene]amino]phosphanium,THF,C1CCOC1,33.9,Bases_pKa_values_MeCN_DMSO_THF_Water.pdf
243,t-BuP1(pyrr)3-H+,CC(C)(C)N[P+](N1CCCC1)(N2CCCC2)N3CCCC3,-,(tert-butylamino)-tripyrrolidin-1-ylphosphanium,MeCN,CC#N,28.42,pKa_values_of_acids_and_bases_in_MeCN_DCE_DMSO_H2O_THF_C7_DME.pdf
301,t-BuP1(pyrr)3-H+,CC(C)(C)N[P+](N1CCCC1)(N2CCCC2)N3CCCC3,-,(tert-butylamino)-tripyrrolidin-1-ylphosphanium,THF,C1CCOC1,20.2,pKa_values_of_acids_and_bases_in_MeCN_DCE_DMSO_H2O_THF_C7_DME.pdf
1226,161118-67-8,CC(C)(C)N[P+](N1CCCC1)(N2CCCC2)N3CCCC3,-,(tert-butylamino)-tripyrrolidin-1-ylphosphanium,H2O,O,17.5,Bases_pKa_values_MeCN_DMSO_THF_Water.pdf
1287,161118-67-8,CC(C)(C)N[P+](N1CCCC1)(N2CCCC2)N3CCCC3,-,(tert-butylamino)-tripyrrolidin-1-ylphosphanium,DMSO,CS(=O)C,17.4,Bases_pKa_values_MeCN_DMSO_THF_Water.pdf
1359,161118-67-8,CC(C)(C)N[P+](N1CCCC1)(N2CCCC2)N3CCCC3,-,(tert-butylamino)-tripyrrolidin-1-ylphosphanium,MeCN,CC#N,28.42,Bases_pKa_values_MeCN_DMSO_THF_Water.pdf
1418,161118-67-8,CC(C)(C)N[P+](N1CCCC1)(N2CCCC2)N3CCCC3,-,(tert-butylamino)-tripyrrolidin-1-ylphosphanium,THF,C1CCOC1,20.2,Bases_pKa_values_MeCN_DMSO_THF_Water.pdf
1161,75-31-0,CC(C)[NH3+],,propan-2-ylazanium,H2O,O,10.65,Bases_pKa_values_MeCN_DMSO_THF_Water.pdf
1233,75-31-0,CC(C)[NH3+],,propan-2-ylazanium,DMSO,CS(=O)C,10.9,Bases_pKa_values_MeCN_DMSO_THF_Water.pdf
1294,75-31-0,CC(C)[NH3+],,propan-2-ylazanium,MeCN,CC#N,18.3,Bases_pKa_values_MeCN_DMSO_THF_Water.pdf
95,1-(4-Nitrophenyl)-2-methyl-1-nitropropane,CC(C)C(C1=CC=C(C=C1)[N+]([O-])=O)[N+]([O-])=O,126661-11-8,1-(2-methyl-1-nitropropyl)-4-nitrobenzene,MeCN,CC#N,25.9,MeCN_Acids_COSMO-RS_2008_Table.pdf
1163,78-81-9,CC(C)C[NH3+],58471-06-0,2-methylpropylazanium,H2O,O,10.42,Bases_pKa_values_MeCN_DMSO_THF_Water.pdf
1235,78-81-9,CC(C)C[NH3+],58471-06-0,2-methylpropylazanium,DMSO,CS(=O)C,10.9,Bases_pKa_values_MeCN_DMSO_THF_Water.pdf
1296,78-81-9,CC(C)C[NH3+],58471-06-0,2-methylpropylazanium,MeCN,CC#N,17.92,Bases_pKa_values_MeCN_DMSO_THF_Water.pdf
1367,78-81-9,CC(C)C[NH3+],58471-06-0,2-methylpropylazanium,THF,C1CCOC1,13,Bases_pKa_values_MeCN_DMSO_THF_Water.pdf
876,791616-63-2,CC(C)C1=CC(=C(C(=C1)C(C)C)C2=CC3=CC=CC=C3C4=C2OP(=O)(OC5=C4C6=CC=CC=C6C=C5C7=C(C=C(C=C7C(C)C)C(C)C)C(C)C)O)C(C)C,791616-63-2,"13-hydroxy-10,16-bis[2,4,6-tri(propan-2-yl)phenyl]-12,14-dioxa-135-phosphapentacyclo[13.8.0.02,11.03,8.018,23]tricosa-1(15),2(11),3,5,7,9,16,18,20,22-decaene 13-oxide",MeCN,CC#N,13.63,Ejoc202001649-sup-00001-misc_information.pdf
1084,791616-63-2,CC(C)C1=CC(=C(C(=C1)C(C)C)C2=CC3=CC=CC=C3C4=C2OP(=O)(OC5=C4C6=CC=CC=C6C=C5C7=C(C=C(C=C7C(C)C)C(C)C)C(C)C)O)C(C)C,791616-63-2,"13-hydroxy-10,16-bis[2,4,6-tri(propan-2-yl)phenyl]-12,14-dioxa-135-phosphapentacyclo[13.8.0.02,11.03,8.018,23]tricosa-1(15),2(11),3,5,7,9,16,18,20,22-decaene 13-oxide",DMSO,CS(=O)C,4.22,Ejoc202001649-sup-00001-misc_information.pdf
1485,Substance3,CC(C)C1=CC(=C(C(=C1)C(C)C)C2=CC3=CC=CC=C3C4=C2OP(=O)(OC5=C4C6=CC=CC=C6C=C5C7=C(C=C(C=C7C(C)C)C(C)C)C(C)C)O)C(C)C,791616-63-2,"13-hydroxy-10,16-bis[2,4,6-tri(propan-2-yl)phenyl]-12,14-dioxa-135-phosphapentacyclo[13.8.0.02,11.03,8.018,23]tricosa-1(15),2(11),3,5,7,9,16,18,20,22-decaene 13-oxide",MeCN,CC#N,13.6,leito_acids
124,"1,1,3,3-Tetranitrobutane",CC(CC([N+](=O)[O-])[N+](=O)[O-])([N+](=O)[O-])[N+](=O)[O-],-,"1,1,3,3-tetranitrobutane",MeCN,CC#N,8,MeCN_Acids_COSMO-RS_2008_Table.pdf
1181,598-56-1,CC[NH+](C)C,-,ethyl(dimethyl)azanium,H2O,O,9.99,Bases_pKa_values_MeCN_DMSO_THF_Water.pdf
1251,598-56-1,CC[NH+](C)C,-,ethyl(dimethyl)azanium,DMSO,CS(=O)C,8.5,Bases_pKa_values_MeCN_DMSO_THF_Water.pdf
1313,598-56-1,CC[NH+](C)C,-,ethyl(dimethyl)azanium,MeCN,CC#N,18.33,Bases_pKa_values_MeCN_DMSO_THF_Water.pdf
1381,598-56-1,CC[NH+](C)C,-,ethyl(dimethyl)azanium,THF,C1CCOC1,12.6,Bases_pKa_values_MeCN_DMSO_THF_Water.pdf
1182,616-39-7,CC[NH+](C)CC,-,diethyl(methyl)azanium,H2O,O,10.29,Bases_pKa_values_MeCN_DMSO_THF_Water.pdf
1252,616-39-7,CC[NH+](C)CC,-,diethyl(methyl)azanium,DMSO,CS(=O)C,9,Bases_pKa_values_MeCN_DMSO_THF_Water.pdf
1314,616-39-7,CC[NH+](C)CC,-,diethyl(methyl)azanium,MeCN,CC#N,18.2,Bases_pKa_values_MeCN_DMSO_THF_Water.pdf
1382,616-39-7,CC[NH+](C)CC,-,diethyl(methyl)azanium,THF,C1CCOC1,12.7,Bases_pKa_values_MeCN_DMSO_THF_Water.pdf
244,Et3N-H+,CC[NH+](CC)CC,17440-81-2,triethylazanium,MeCN,CC#N,18.63,pKa_values_of_acids_and_bases_in_MeCN_DCE_DMSO_H2O_THF_C7_DME.pdf
274,Et3N-H+,CC[NH+](CC)CC,17440-81-2,triethylazanium,DMSO,CS(=O)C,9,pKa_values_of_acids_and_bases_in_MeCN_DCE_DMSO_H2O_THF_C7_DME.pdf
288,Et3N-H+,CC[NH+](CC)CC,17440-81-2,triethylazanium,H2O,O,10.7,pKa_values_of_acids_and_bases_in_MeCN_DCE_DMSO_H2O_THF_C7_DME.pdf
302,Et3N-H+,CC[NH+](CC)CC,17440-81-2,triethylazanium,THF,C1CCOC1,12.5,pKa_values_of_acids_and_bases_in_MeCN_DCE_DMSO_H2O_THF_C7_DME.pdf
1175,121-44-8,CC[NH+](CC)CC,17440-81-2,triethylazanium,H2O,O,10.65,Bases_pKa_values_MeCN_DMSO_THF_Water.pdf
1246,121-44-8,CC[NH+](CC)CC,17440-81-2,triethylazanium,DMSO,CS(=O)C,9,Bases_pKa_values_MeCN_DMSO_THF_Water.pdf
1307,121-44-8,CC[NH+](CC)CC,17440-81-2,triethylazanium,MeCN,CC#N,18.83,Bases_pKa_values_MeCN_DMSO_THF_Water.pdf
1376,121-44-8,CC[NH+](CC)CC,17440-81-2,triethylazanium,THF,C1CCOC1,12.5,Bases_pKa_values_MeCN_DMSO_THF_Water.pdf
1168,109-89-7,CC[NH2+]CC,-,diethylazanium,H2O,O,10.98,Bases_pKa_values_MeCN_DMSO_THF_Water.pdf
1240,109-89-7,CC[NH2+]CC,-,diethylazanium,DMSO,CS(=O)C,10.5,Bases_pKa_values_MeCN_DMSO_THF_Water.pdf
1301,109-89-7,CC[NH2+]CC,-,diethylazanium,MeCN,CC#N,18.75,Bases_pKa_values_MeCN_DMSO_THF_Water.pdf
1371,109-89-7,CC[NH2+]CC,-,diethylazanium,THF,C1CCOC1,13,Bases_pKa_values_MeCN_DMSO_THF_Water.pdf
1159,75-04-7,CC[NH3+],16999-99-8,ethylazanium,H2O,O,10.63,Bases_pKa_values_MeCN_DMSO_THF_Water.pdf
1231,75-04-7,CC[NH3+],16999-99-8,ethylazanium,DMSO,CS(=O)C,10.9,Bases_pKa_values_MeCN_DMSO_THF_Water.pdf
1292,75-04-7,CC[NH3+],16999-99-8,ethylazanium,MeCN,CC#N,18.4,Bases_pKa_values_MeCN_DMSO_THF_Water.pdf
1364,75-04-7,CC[NH3+],16999-99-8,ethylazanium,THF,C1CCOC1,13.5,Bases_pKa_values_MeCN_DMSO_THF_Water.pdf
580,Sorbic acid,CC=CC=CC(=O)O,110-44-1,"hexa-2,4-dienoic acid",MeCN,CC#N,22.97,pKa_values_of_acids_in_acetonitrile.pdf
810,110-44-1,CC=CC=CC(=O)O,110-44-1,"hexa-2,4-dienoic acid",MeCN,CC#N,22.97,Ejoc202001649-sup-00001-misc_information.pdf
993,110-44-1,CC=CC=CC(=O)O,110-44-1,"hexa-2,4-dienoic acid",H2O,O,4.5,Ejoc202001649-sup-00001-misc_information.pdf
335,2-methyl-8-aminoquinoline,CC1=[NH+]C2=C(C=CC=C2N)C=C1,,2-methylquinolin-1-ium-8-amine,MeCN,CC#N,11.54,pKa_values_of_nitrogen_heterocycles.pdf
102,Pentakis(trifluoromethyl)-toluene,CC1=C(C(=C(C(=C1C(F)(F)F)C(F)(F)F)C(F)(F)F)C(F)(F)F)C(F)(F)F,-,"1-methyl-2,3,4,5,6-pentakis(trifluoromethyl)benzene",MeCN,CC#N,28.7,MeCN_Acids_COSMO-RS_2008_Table.pdf
524,pentakis(trifluoromethyl)Toluene,CC1=C(C(=C(C(=C1C(F)(F)F)C(F)(F)F)C(F)(F)F)C(F)(F)F)C(F)(F)F,-,"1-methyl-2,3,4,5,6-pentakis(trifluoromethyl)benzene",MeCN,CC#N,28.77,pKa_values_of_acids_in_acetonitrile.pdf
753,1018330-43-2,CC1=C(C(=C(C(=C1C(F)(F)F)C(F)(F)F)C(F)(F)F)C(F)(F)F)C(F)(F)F,1018330-43-2,"1-methyl-2,3,4,5,6-pentakis(trifluoromethyl)benzene",MeCN,CC#N,28.77,Ejoc202001649-sup-00001-misc_information.pdf
1025,1018330-43-2,CC1=C(C(=C(C(=C1C(F)(F)F)C(F)(F)F)C(F)(F)F)C(F)(F)F)C(F)(F)F,1018330-43-2,"1-methyl-2,3,4,5,6-pentakis(trifluoromethyl)benzene",DMSO,CS(=O)C,13.9,Ejoc202001649-sup-00001-misc_information.pdf
1423,"2,3,4,5,6-(CF3)5-toluene",CC1=C(C(=C(C(=C1C(F)(F)F)C(F)(F)F)C(F)(F)F)C(F)(F)F)C(F)(F)F,1018330-43-2,"1-methyl-2,3,4,5,6-pentakis(trifluoromethyl)benzene",MeCN,CC#N,28.7,leito_acids
103,Pentacyanotoluene,CC1=C(C(=C(C(=C1C#N)C#N)C#N)C#N)C#N,1213-77-0,"6-methylbenzene-1,2,3,4,5-pentacarbonitrile",MeCN,CC#N,20.14,MeCN_Acids_COSMO-RS_2008_Table.pdf
601,pentacyanoToluene,CC1=C(C(=C(C(=C1C#N)C#N)C#N)C#N)C#N,1213-77-0,"6-methylbenzene-1,2,3,4,5-pentacarbonitrile",MeCN,CC#N,20.14,pKa_values_of_acids_in_acetonitrile.pdf
831,1213-77-0,CC1=C(C(=C(C(=C1C#N)C#N)C#N)C#N)C#N,1213-77-0,"6-methylbenzene-1,2,3,4,5-pentacarbonitrile",MeCN,CC#N,20.14,Ejoc202001649-sup-00001-misc_information.pdf
1064,1213-77-0,CC1=C(C(=C(C(=C1C#N)C#N)C#N)C#N)C#N,1213-77-0,"6-methylbenzene-1,2,3,4,5-pentacarbonitrile",DMSO,CS(=O)C,8.2,Ejoc202001649-sup-00001-misc_information.pdf
622,4-Me-C6H4-CH(CN)2,CC1=C(C(=C(C(=C1F)F)C(C#N)C#N)F)F,64934-71-0,"2-(2,3,5,6-tetrafluoro-4-methylphenyl)propanedinitrile",MeCN,CC#N,17.57,pKa_values_of_acids_in_acetonitrile.pdf
645,4-Me-C6F4-CH(CN)2,CC1=C(C(=C(C(=C1F)F)C(C#N)C#N)F)F,64934-71-0,"2-(2,3,5,6-tetrafluoro-4-methylphenyl)propanedinitrile",MeCN,CC#N,13.87,pKa_values_of_acids_in_acetonitrile.pdf
1484,4-Me-C6F4CH(CN)2,CC1=C(C(=C(C(=C1F)F)C(C#N)C#N)F)F,64934-71-0,"2-(2,3,5,6-tetrafluoro-4-methylphenyl)propanedinitrile",MeCN,CC#N,13.87,leito_acids
465,(4-Me-C6F4)(C6F5)CHCN,CC1=C(C(=C(C(=C1F)F)C(C#N)C2=C(C(=C(C(=C2F)F)F)F)F)F)F,52345-34-3,"2-(2,3,4,5,6-pentafluorophenyl)-2-(2,3,5,6-tetrafluoro-4-methylphenyl)acetonitrile",MeCN,CC#N,21.94,a_unified_view_to_bronsted_acidity_scales.pdf
588,(4-Me-C6F4)(C6F5)CHCN,CC1=C(C(=C(C(=C1F)F)C(C#N)C2=C(C(=C(C(=C2F)F)F)F)F)F)F,52345-34-3,"2-(2,3,4,5,6-pentafluorophenyl)-2-(2,3,5,6-tetrafluoro-4-methylphenyl)acetonitrile",MeCN,CC#N,21.94,pKa_values_of_acids_in_acetonitrile.pdf
1445,(4-Me-C6F4)(C6F5)CHCN,CC1=C(C(=C(C(=C1F)F)C(C#N)C2=C(C(=C(C(=C2F)F)F)F)F)F)F,52345-34-3,"2-(2,3,4,5,6-pentafluorophenyl)-2-(2,3,5,6-tetrafluoro-4-methylphenyl)acetonitrile",MeCN,CC#N,21.94,leito_acids
1569,(4-Me-C6F4)(C6F5)CHCN,CC1=C(C(=C(C(=C1F)F)C(C#N)C2=C(C(=C(C(=C2F)F)F)F)F)F)F,52345-34-3,"2-(2,3,4,5,6-pentafluorophenyl)-2-(2,3,5,6-tetrafluoro-4-methylphenyl)acetonitrile",DCE,C(CCl)Cl,56.7,leito_acids
1425,(4-Me-C6F4)(C6H5)CHCN,CC1=C(C(=C(C(=C1F)F)C(C#N)C2=CC=CC=C2)F)F,58432-62-5,"2-phenyl-2-(2,3,5,6-tetrafluoro-4-methylphenyl)acetonitrile",MeCN,CC#N,26.96,leito_acids
1431,(4-Me-C6F4)(C6F5)NH,CC1=C(C(=C(C(=C1F)F)NC2=C(C(=C(C(=C2F)F)F)F)F)F)F,80588-36-9,"2,3,5,6-tetrafluoro-4-methyl-N-(2,3,4,5,6-pentafluorophenyl)aniline",MeCN,CC#N,24.94,leito_acids
208,"2,3,5,6-Tetrafluoro-4-methylphenol",CC1=C(C(=C(C(=C1F)F)O)F)F,1644-90-2,"2,3,5,6-tetrafluoro-4-methylphenol",MeCN,CC#N,20.3,MeCN_Acids_COSMO-RS_2008_Table.pdf
484,Bromocresol green,CC1=C(C(=C(C=C1C2(C3=CC=CC=C3S(=O)(=O)O2)C4=CC(=C(C(=C4C)Br)O)Br)Br)O)Br,76-60-8,"2,6-dibromo-4-[3-(3,5-dibromo-4-hydroxy-2-methylphenyl)-1,1-dioxo-2,16-benzoxathiol-3-yl]-3-methylphenol",MeCN,CC#N,11,a_unified_view_to_bronsted_acidity_scales.pdf
1612,Bromocresol green,CC1=C(C(=C(C=C1C2(C3=CC=CC=C3S(=O)(=O)O2)C4=CC(=C(C(=C4C)Br)O)Br)Br)O)Br,76-60-8,"2,6-dibromo-4-[3-(3,5-dibromo-4-hydroxy-2-methylphenyl)-1,1-dioxo-2,16-benzoxathiol-3-yl]-3-methylphenol",DCE,C(CCl)Cl,45.2,leito_acids
114,3-Methylphthalic acid,CC1=C(C(=CC=C1)C(=O)O)C(=O)O,37102-74-2,3-methylphthalic acid,MeCN,CC#N,17,MeCN_Acids_COSMO-RS_2008_Table.pdf
585,Retinoic acid,CC1=C(C(CCC1)(C)C)C=CC(=CC=CC(=CC(=O)O)C)C,302-79-4,"3,7-dimethyl-9-(2,6,6-trimethylcyclohexen-1-yl)nona-2,4,6,8-tetraenoic acid",MeCN,CC#N,22.78,pKa_values_of_acids_in_acetonitrile.pdf
815,302-79-4,CC1=C(C(CCC1)(C)C)C=CC(=CC=CC(=CC(=O)O)C)C,302-79-4,"3,7-dimethyl-9-(2,6,6-trimethylcyclohexen-1-yl)nona-2,4,6,8-tetraenoic acid",MeCN,CC#N,22.78,Ejoc202001649-sup-00001-misc_information.pdf
1442,all-trans retinoic acid,CC1=C(C(CCC1)(C)C)C=CC(=CC=CC(=CC(=O)O)C)C,302-79-4,"(2E,4E,6E,8E)-3,7-dimethyl-9-(2,6,6-trimethylcyclohexen-1-yl)nona-2,4,6,8-tetraenoic acid",MeCN,CC#N,22.77,leito_acids
483,Bromothymol blue,CC1=C(C=C(C(=C1Br)O)C(C)C)C2(C3=CC=CC=C3S(=O)(=O)O2)C4=C(C(=C(C(=C4)C(C)C)O)Br)C,76-59-5,"2-bromo-4-[3-(3-bromo-4-hydroxy-2-methyl-5-propan-2-ylphenyl)-1,1-dioxo-2,16-benzoxathiol-3-yl]-3-methyl-6-propan-2-ylphenol",MeCN,CC#N,11.7,a_unified_view_to_bronsted_acidity_scales.pdf
1611,Bromothymol blue,CC1=C(C=C(C(=C1Br)O)C(C)C)C2(C3=CC=CC=C3S(=O)(=O)O2)C4=C(C(=C(C(=C4)C(C)C)O)Br)C,76-59-5,"2-bromo-4-[3-(3-bromo-4-hydroxy-2-methyl-5-propan-2-ylphenyl)-1,1-dioxo-2,16-benzoxathiol-3-yl]-3-methyl-6-propan-2-ylphenol",DCE,C(CCl)Cl,46.1,leito_acids
171,"3,4-Dimethylbenzoicacid",CC1=C(C=C(C=C1)C(=O)O)C,619-04-5,"3,4-dimethylbenzoic acid",MeCN,CC#N,19,MeCN_Acids_COSMO-RS_2008_Table.pdf
144,"3,4-dimethylbenzenesulfonamide",CC1=C(C=C(C=C1)S(=O)(=O)N)C,6326-18-7,"3,4-dimethylbenzenesulfonamide",MeCN,CC#N,25.01,MeCN_Acids_COSMO-RS_2008_Table.pdf
104,"2,4,6-Trinitrotoluene",CC1=C(C=C(C=C1[N+](=O)[O-])[N+](=O)[O-])[N+](=O)[O-],118-96-7,"2-methyl-1,3,5-trinitrobenzene",MeCN,CC#N,23.2,MeCN_Acids_COSMO-RS_2008_Table.pdf
8,52345-34-3,CC1=C(F)C(=C([C@@H](C#N)C2=C(F)C(=C(F)C(=C2F)F)F)C(=C1F)F)F,52345-34-3,"(R)-2-(perfluorophenyl)-2-(2,3,5,6-tetrafluoro-4-methylphenyl)acetonitrile",MeCN,CC#N,21.94,MeCN_Acids_COSMO-RS_2008_Table.pdf
818,52345-34-3,CC1=C(F)C(=C([C@@H](C#N)C2=C(F)C(=C(F)C(=C2F)F)F)C(=C1F)F)F,52345-34-3,"(R)-2-(perfluorophenyl)-2-(2,3,5,6-tetrafluoro-4-methylphenyl)acetonitrile",MeCN,CC#N,21.94,Ejoc202001649-sup-00001-misc_information.pdf
1095,52345-34-3,CC1=C(F)C(=C([C@@H](C#N)C2=C(F)C(=C(F)C(=C2F)F)F)C(=C1F)F)F,52345-34-3,"(R)-2-(perfluorophenyl)-2-(2,3,5,6-tetrafluoro-4-methylphenyl)acetonitrile",DCE,C(CCl)Cl,56.7,Ejoc202001649-sup-00001-misc_information.pdf
24,64934-71-0,CC1=C(F)C(=C(C(C#N)C#N)C(=C1F)F)F,64934-71-0,"2-(2,3,5,6-tetrafluoro-4-methylphenyl)propanedinitrile",MeCN,CC#N,13.87,MeCN_Acids_COSMO-RS_2008_Table.pdf
875,64934-71-0,CC1=C(F)C(=C(C(C#N)C#N)C(=C1F)F)F,64934-71-0,"2-(2,3,5,6-tetrafluoro-4-methylphenyl)propanedinitrile",MeCN,CC#N,13.87,Ejoc202001649-sup-00001-misc_information.pdf
14,58432-44-3,CC1=C(F)C(=C(C(C#N)C2=C(F)C(=C(C)C(=C2F)F)F)C(=C1F)F)F,58432-44-3,"2,2-bis(2,3,5,6-tetrafluoro-4-methylphenyl)acetonitrile",MeCN,CC#N,22.8,MeCN_Acids_COSMO-RS_2008_Table.pdf
464,(4-Me-C6F4)2CHCN,CC1=C(F)C(=C(C(C#N)C2=C(F)C(=C(C)C(=C2F)F)F)C(=C1F)F)F,58432-44-3,"2,2-bis(2,3,5,6-tetrafluoro-4-methylphenyl)acetonitrile",MeCN,CC#N,22.8,a_unified_view_to_bronsted_acidity_scales.pdf
584,(4-Me-C6F4)2CHCN,CC1=C(F)C(=C(C(C#N)C2=C(F)C(=C(C)C(=C2F)F)F)C(=C1F)F)F,58432-44-3,"2,2-bis(2,3,5,6-tetrafluoro-4-methylphenyl)acetonitrile",MeCN,CC#N,22.8,pKa_values_of_acids_in_acetonitrile.pdf
814,58432-44-3,CC1=C(F)C(=C(C(C#N)C2=C(F)C(=C(C)C(=C2F)F)F)C(=C1F)F)F,58432-44-3,"2,2-bis(2,3,5,6-tetrafluoro-4-methylphenyl)acetonitrile",MeCN,CC#N,22.8,Ejoc202001649-sup-00001-misc_information.pdf
1094,58432-44-3,CC1=C(F)C(=C(C(C#N)C2=C(F)C(=C(C)C(=C2F)F)F)C(=C1F)F)F,58432-44-3,"2,2-bis(2,3,5,6-tetrafluoro-4-methylphenyl)acetonitrile",DCE,C(CCl)Cl,57.8,Ejoc202001649-sup-00001-misc_information.pdf
1441,(4-Me-C6F4)2CHCN,CC1=C(F)C(=C(C(C#N)C2=C(F)C(=C(C)C(=C2F)F)F)C(=C1F)F)F,58432-44-3,"2,2-bis(2,3,5,6-tetrafluoro-4-methylphenyl)acetonitrile",MeCN,CC#N,22.8,leito_acids
1568,(4-Me-C6F4)2CHCN,CC1=C(F)C(=C(C(C#N)C2=C(F)C(=C(C)C(=C2F)F)F)C(=C1F)F)F,58432-44-3,"2,2-bis(2,3,5,6-tetrafluoro-4-methylphenyl)acetonitrile",DCE,C(CCl)Cl,57.8,leito_acids
16,58432-62-5,CC1=C(F)C(=C(C(C#N)C2=CC=CC=C2)C(=C1F)F)F,58432-62-5,"2-phenyl-2-(2,3,5,6-tetrafluoro-4-methylphenyl)acetonitrile",MeCN,CC#N,26.96,MeCN_Acids_COSMO-RS_2008_Table.pdf
765,58432-62-5,CC1=C(F)C(=C(C(C#N)C2=CC=CC=C2)C(=C1F)F)F,58432-62-5,"2-phenyl-2-(2,3,5,6-tetrafluoro-4-methylphenyl)acetonitrile",MeCN,CC#N,26.98,Ejoc202001649-sup-00001-misc_information.pdf
1029,58432-62-5,CC1=C(F)C(=C(C(C#N)C2=CC=CC=C2)C(=C1F)F)F,58432-62-5,"2-phenyl-2-(2,3,5,6-tetrafluoro-4-methylphenyl)acetonitrile",DMSO,CS(=O)C,13.2,Ejoc202001649-sup-00001-misc_information.pdf
91,80588-36-9,CC1=C(F)C(=C(NC2=C(F)C(=C(F)C(=C2F)F)F)C(=C1F)F)F,80588-36-9,"2,3,5,6-tetrafluoro-4-methyl-N-(2,3,4,5,6-pentafluorophenyl)aniline",MeCN,CC#N,24.94,MeCN_Acids_COSMO-RS_2008_Table.pdf
788,80588-36-9,CC1=C(F)C(=C(NC2=C(F)C(=C(F)C(=C2F)F)F)C(=C1F)F)F,80588-36-9,"2,3,5,6-tetrafluoro-4-methyl-N-(2,3,4,5,6-pentafluorophenyl)aniline",MeCN,CC#N,24.96,Ejoc202001649-sup-00001-misc_information.pdf