,Unnamed: 0,checking?,solute,solute SMILES,computed CAS,computed IUPAC,solvent,solvent SMILES,pka,ref
1094,1094,T,7647-01-0,Cl,7647-01-0,chlorane,DMSO,CS(=O)C,-2.0,Ejoc202001649-sup-00001-misc_information.pdf
1095,1095,T,40906-82-9,C1=CC=C(C=C1)C(S(=O)(=O)C(F)(F)F)S(=O)(=O)C(F)(F)F,40906-82-9,bis(trifluoromethylsulfonyl)methylbenzene,DMSO,CS(=O)C,2.0,Ejoc202001649-sup-00001-misc_information.pdf
1096,1096,T,10035-10-6,Br,10035-10-6,bromane,DMSO,CS(=O)C,-6.8,Ejoc202001649-sup-00001-misc_information.pdf
1097,1097,,10034-85-2,I,10034-85-2,iodane,DMSO,CS(=O)C,-10.9,Ejoc202001649-sup-00001-misc_information.pdf
1098,1098,T,3002-30-0,COC(=O)C1C2=CC=CC=C2C3=CC=CC=C13,3002-30-0,methyl 9H-fluorene-9-carboxylate,DCE,C(CCl)Cl,58.1,Ejoc202001649-sup-00001-misc_information.pdf
1099,1099,,58432-44-3,no SMILES,654055-01-3,"2-(2,4-dihydroxyphenyl)-3,5,7-trihydroxychromen-4-one;dihydrate",DCE,C(CCl)Cl,57.8,Ejoc202001649-sup-00001-misc_information.pdf
1100,1100,,52345-34-3,CCCC1=NC=C(C(=N1)N)C[N+]2=CC=CC=C2C.Cl.[Cl-],137-88-2,5-[(2-methylpyridin-1-ium-1-yl)methyl]-2-propylpyrimidin-4-amine;chloride;hydrochloride,DCE,C(CCl)Cl,56.7,Ejoc202001649-sup-00001-misc_information.pdf
1101,1101,T,1529-40-4,C1=CC=C2C(=C1)C(C3=CC=CC=C32)C#N,1529-40-4,9H-fluorene-9-carbonitrile,DCE,C(CCl)Cl,55.9,Ejoc202001649-sup-00001-misc_information.pdf
1102,1102,,42254-09-1,CCOC1=CC=C(C=C1)N2C(=O)C3=C(NC2=S)NN=C3,-,"5-(4-ethoxyphenyl)-6-sulfanylidene-1,7-dihydropyrazolo[3,4-d]pyrimidin-4-one",DCE,C(CCl)Cl,55.7,Ejoc202001649-sup-00001-misc_information.pdf
1103,1103,,42238-36-8,CN(C)CCNCC(=O)N1C2=CC=CC=C2SC3=CC=CC=C31,93995-89-2,2-[2-(dimethylamino)ethylamino]-1-phenothiazin-10-ylethanone,DCE,C(CCl)Cl,54.7,Ejoc202001649-sup-00001-misc_information.pdf
1104,1104,,64934-68-5,no matches,-,-,DCE,C(CCl)Cl,54.4,Ejoc202001649-sup-00001-misc_information.pdf
1105,1105,,62325-38-6,C1=CC2=C(C=CC3=C2C=CC(=C3)Br)C=C1Br,62325-30-8,"2,7-dibromophenanthrene",DCE,C(CCl)Cl,53.4,Ejoc202001649-sup-00001-misc_information.pdf
1106,1106,T,63264-80-2,C1(C2=C(C3=C1C(=C(C(=C3F)F)F)F)C(=C(C(=C2F)F)F)F)C4=C(C(=C(C(=C4F)F)F)F)F,63264-80-2,"1,2,3,4,5,6,7,8-octafluoro-9-(2,3,4,5,6-pentafluorophenyl)-9H-fluorene",DCE,C(CCl)Cl,53.8,Ejoc202001649-sup-00001-misc_information.pdf
1107,1107,,42238-35-7,C1=C(C=C(C=C1N)Br)C(=O)O,42237-85-4,3-amino-5-bromobenzoic acid,DCE,C(CCl)Cl,52.3,Ejoc202001649-sup-00001-misc_information.pdf
1108,1108,,2340-87-6,CCOC(=O)C(C#N)C1=C(C(=C(C(=C1F)F)F)F)F,-,"ethyl 2-cyano-2-(2,3,4,5,6-pentafluorophenyl)acetate",DCE,C(CCl)Cl,52.5,Ejoc202001649-sup-00001-misc_information.pdf
1109,1109,,62325-34-2,COC1=C(C=C(C=C1)C(=C(C=O)C2=CC(=C(C(=C2)OC)OC)OC)Cl)OC,NCI60_006939,"3-chloro-3-(3,4-dimethoxyphenyl)-2-(3,4,5-trimethoxyphenyl)prop-2-enal",DCE,C(CCl)Cl,52.0,Ejoc202001649-sup-00001-misc_information.pdf
1110,1110,,4-Cl-C6F4-CH(CN)COOEt,no matches,-,-,DCE,C(CCl)Cl,52.2,Ejoc202001649-sup-00001-misc_information.pdf
1111,1111,,62325-51-3,C1=CC2=C(C=CC3=C2C=CC(=C3)Br)C=C1Br,62325-30-8,"2,7-dibromophenanthrene",DCE,C(CCl)Cl,50.5,Ejoc202001649-sup-00001-misc_information.pdf
1112,1112,T,32251-53-9,CCOC(=O)C(C#N)C1=C(C(=C(C(=C1F)F)C(F)(F)F)F)F,32251-53-9,"ethyl 2-cyano-2-[2,3,5,6-tetrafluoro-4-(trifluoromethyl)phenyl]acetate",DCE,C(CCl)Cl,50.6,Ejoc202001649-sup-00001-misc_information.pdf
1113,1113,,55810-61-2,no matches,-,-,DCE,C(CCl)Cl,49.4,Ejoc202001649-sup-00001-misc_information.pdf
1114,1114,T,99726-60-0,C1=CC(=CC(=C1)C(F)(F)F)C(C#N)C#N,99726-60-0,2-[3-(trifluoromethyl)phenyl]propanedinitrile,DCE,C(CCl)Cl,49.0,Ejoc202001649-sup-00001-misc_information.pdf
1115,1115,,64934-72-1,CC(C)C(C=O)Br,64932-36-1,2-bromo-3-methylbutanal,DCE,C(CCl)Cl,47.3,Ejoc202001649-sup-00001-misc_information.pdf
1116,1116,,"2,3,4,5,6-(CF3)5-C6-CH(CN)COOEt",no matches,-,-,DCE,C(CCl)Cl,47.8,Ejoc202001649-sup-00001-misc_information.pdf
1117,1117,,55810-63-4,CCN(CC)CCOCC[Si](C)(C1=CC=CC=C1)C2=CC=CC=C2,70737-24-5,"N,N-diethyl-2-[2-[methyl(diphenyl)silyl]ethoxy]ethanamine",DCE,C(CCl)Cl,47.5,Ejoc202001649-sup-00001-misc_information.pdf
1118,1118,T,62325-35-3,C(#N)C(C#N)C1=C(C2=C(C(=C1F)F)C(=C(C(=C2F)F)F)F)F,62325-35-3,"2-(1,3,4,5,6,7,8-heptafluoronaphthalen-2-yl)propanedinitrile",DCE,C(CCl)Cl,46.3,Ejoc202001649-sup-00001-misc_information.pdf
1119,1119,T,88-89-1,C1=C(C=C(C(=C1[N+](=O)[O-])O)[N+](=O)[O-])[N+](=O)[O-],88-89-1,"2,4,6-trinitrophenol",DCE,C(CCl)Cl,45.0,Ejoc202001649-sup-00001-misc_information.pdf
1120,1120,,1018330-49-8,no matches,-,-,DCE,C(CCl)Cl,44.2,Ejoc202001649-sup-00001-misc_information.pdf
1121,1121,T,7647-01-0,Cl,7647-01-0,chlorane,DCE,C(CCl)Cl,45.2,Ejoc202001649-sup-00001-misc_information.pdf
1122,1122,T,55852-24-9,C(#N)C(C#N)C1=C(C(=C(C(=C1F)F)C(F)(F)F)F)F,55852-24-9,"2-[2,3,5,6-tetrafluoro-4-(trifluoromethyl)phenyl]propanedinitrile",DCE,C(CCl)Cl,44.2,Ejoc202001649-sup-00001-misc_information.pdf
1123,1123,,100724-78-5,CC1=CC=C(C=C1)[S](=O)(=O)N[S](=O)(=O)C2=CC=C(C=C2)[N+]([O-])=O,"4-Methyl-4'-nitro[1,1'-iminobis(sulfonyl)bis(benzene)]",4-methyl-N-(4-nitrophenyl)sulfonylbenzenesulfonamide,DCE,C(CCl)Cl,43.3,Ejoc202001649-sup-00001-misc_information.pdf
1124,1124,,95468-16-9,C1=CC(=CC(=C1)S(=O)(=O)NS(=O)(=O)C2=CC=C(C=C2)Cl)[N+](=O)[O-],-,N-(4-chlorophenyl)sulfonyl-3-nitrobenzenesulfonamide,DCE,C(CCl)Cl,42.4,Ejoc202001649-sup-00001-misc_information.pdf
1125,1125,,"2,3,4,5,6-(CF3)5-C6-CH(CN)2",no matches,-,-,DCE,C(CCl)Cl,42.2,Ejoc202001649-sup-00001-misc_information.pdf
1126,1126,,7/6/09,no matches,-,-,DCE,C(CCl)Cl,41.1,Ejoc202001649-sup-00001-misc_information.pdf
1127,1127,,2226486-82-2,no matches,-,-,DCE,C(CCl)Cl,40.7,Ejoc202001649-sup-00001-misc_information.pdf
1128,1128,,7664-93-9,OS(=O)(=O)O,7664-93-9,sulfuric acid,DCE,C(CCl)Cl,42.8,Ejoc202001649-sup-00001-misc_information.pdf
1129,1129,,64646-01-1,C1=CC=C(C=C1)C2=CN=C(O2)CCl,64640-13-7,"2-(chloromethyl)-5-phenyl-1,3-oxazole",DCE,C(CCl)Cl,40.4,Ejoc202001649-sup-00001-misc_information.pdf
1130,1130,,1207878-53-2,no matches,-,-,DCE,C(CCl)Cl,39.9,Ejoc202001649-sup-00001-misc_information.pdf
1131,1131,T,10035-10-6,Br,10035-10-6,bromane,DCE,C(CCl)Cl,40.6,Ejoc202001649-sup-00001-misc_information.pdf
1132,1132,,882492-01-5,no matches,-,-,DCE,C(CCl)Cl,39.0,Ejoc202001649-sup-00001-misc_information.pdf
1133,1133,,454-50-2,C(#N)C(C#N)C#N,454-50-2,methanetricarbonitrile,DCE,C(CCl)Cl,38.6,Ejoc202001649-sup-00001-misc_information.pdf
1134,1134,,174788-93-3,CC1=CC=C(C=C1)[S](=O)(=O)N[S](=O)(=N[S](=O)(=O)C(F)(F)F)C2=CC=C(Cl)C=C2,-,-,DCE,C(CCl)Cl,38.0,Ejoc202001649-sup-00001-misc_information.pdf
1135,1135,,71571-37-4,CC1=C(SC(=N1)N)C.Cl,71574-33-9,"4,5-dimethyl-1,3-thiazol-2-amine;hydrochloride",DCE,C(CCl)Cl,38.4,Ejoc202001649-sup-00001-misc_information.pdf
1136,1136,,27062-39-1,C(#N)C(=C(C#N)O)C#N,-,"2-hydroxyethene-1,1,2-tricarbonitrile",DCE,C(CCl)Cl,36.3,Ejoc202001649-sup-00001-misc_information.pdf
1137,1137,T,174788-91-1,[O-][N+](=O)C1=CC=C(C=C1)[S](=O)(=O)N[S](=O)(=O)C(F)(F)F,174788-91-1,4-nitro-N-(trifluoromethylsulfonyl)benzenesulfonamide,DCE,C(CCl)Cl,37.1,Ejoc202001649-sup-00001-misc_information.pdf
1138,1138,,174788-95-5,FC(F)(F)[S](=O)(=O)N=[S](=O)(N[S](=O)(=O)C1=CC=C(Cl)C=C1)C2=CC=C(Cl)C=C2,-,-,DCE,C(CCl)Cl,37.1,Ejoc202001649-sup-00001-misc_information.pdf
1139,1139,,89-02-1,C1=CC(=C(C=C1[N+](=O)[O-])[N+](=O)[O-])S(=O)(=O)O,89-02-1,"2,4-dinitrobenzenesulfonic acid",DCE,C(CCl)Cl,36.0,Ejoc202001649-sup-00001-misc_information.pdf
1140,1140,,215395-09-8,CCC1=C(C(=CC=C1)CC)N(CNC(=O)C)C(=O)CCl,40164-67-8,"N-(acetamidomethyl)-2-chloro-N-(2,6-diethylphenyl)acetamide",DCE,C(CCl)Cl,38.0,Ejoc202001649-sup-00001-misc_information.pdf
1141,1141,,4-Cl-C6H4-SO(=NTf)-NH-SO2-C6H4-4-NO2,no matches,-,-,DCE,C(CCl)Cl,35.9,Ejoc202001649-sup-00001-misc_information.pdf
1142,1142,,10034-85-2,I,10034-85-2,iodane,DCE,C(CCl)Cl,37.7,Ejoc202001649-sup-00001-misc_information.pdf
1143,1143,,120-72-9,C1=CC=C2C(=C1)C=CN2,120-72-9,1H-indole,DMF,CN(C)C=O,21.65,Ejoc202001649-sup-00001-misc_information.pdf
1144,1144,,108-95-2,C1=CC=C(C=C1)O,108-95-2,phenol,DMF,CN(C)C=O,18.4,Ejoc202001649-sup-00001-misc_information.pdf
1145,1145,T,98-10-2,C1=CC=C(C=C1)S(=O)(=O)N,98-10-2,benzenesulfonamide,DMF,CN(C)C=O,17.06,Ejoc202001649-sup-00001-misc_information.pdf
1146,1146,T,98-17-9,C1=CC(=CC(=C1)O)C(F)(F)F,98-17-9,3-(trifluoromethyl)phenol,DMF,CN(C)C=O,15.7,Ejoc202001649-sup-00001-misc_information.pdf
1147,1147,T,402-46-0,C1=CC(=CC=C1F)S(=O)(=O)N,402-46-0,4-fluorobenzenesulfonamide,DMF,CN(C)C=O,16.67,Ejoc202001649-sup-00001-misc_information.pdf
1148,1148,,98-64-6,C1=CC(=CC=C1S(=O)(=O)N)Cl,98-64-6,4-chlorobenzenesulfonamide,DMF,CN(C)C=O,16.58,Ejoc202001649-sup-00001-misc_information.pdf
1149,1149,T,672-58-2,C1=CC(=CC(=C1)S(=O)(=O)N)C(F)(F)F,672-58-2,3-(trifluoromethyl)benzenesulfonamide,DMF,CN(C)C=O,16.01,Ejoc202001649-sup-00001-misc_information.pdf
1150,1150,,6325-93-5,C1=CC(=CC=C1[N+](=O)[O-])S(=O)(=O)N,6325-93-5,4-nitrobenzenesulfonamide,DMF,CN(C)C=O,15.49,Ejoc202001649-sup-00001-misc_information.pdf
1151,1151,T,64-19-7,CC(=O)O,64-19-7,acetic acid,DMF,CN(C)C=O,13.5,Ejoc202001649-sup-00001-misc_information.pdf
1152,1152,T,88-75-5,C1=CC=C(C(=C1)[N+](=O)[O-])O,88-75-5,2-nitrophenol,DMF,CN(C)C=O,12.2,Ejoc202001649-sup-00001-misc_information.pdf
1153,1153,T,65-85-0,C1=CC=C(C=C1)C(=O)O,65-85-0,benzoic acid,DMF,CN(C)C=O,12.3,Ejoc202001649-sup-00001-misc_information.pdf
1154,1154,,87-86-5,C1(=C(C(=C(C(=C1Cl)Cl)Cl)Cl)Cl)O,87-86-5,"2,3,4,5,6-pentachlorophenol",DMF,CN(C)C=O,7.97,Ejoc202001649-sup-00001-misc_information.pdf
1155,1155,,573-56-8,C1=CC(=C(C(=C1)[N+](=O)[O-])O)[N+](=O)[O-],573-56-8,"2,6-dinitrophenol",DMF,CN(C)C=O,6.18,Ejoc202001649-sup-00001-misc_information.pdf
1156,1156,T,51-28-5,C1=CC(=C(C=C1[N+](=O)[O-])[N+](=O)[O-])O,51-28-5,"2,4-dinitrophenol",DMF,CN(C)C=O,6.33,Ejoc202001649-sup-00001-misc_information.pdf
1157,1157,T,3695-00-9,CC1=CC=C(C=C1)S(=O)(=O)NS(=O)(=O)C2=CC=C(C=C2)C,3695-00-9,4-methyl-N-(4-methylphenyl)sulfonylbenzenesulfonamide,DMF,CN(C)C=O,3.87,Ejoc202001649-sup-00001-misc_information.pdf
1158,1158,T,2618-96-4,C1=CC=C(C=C1)S(=O)(=O)NS(=O)(=O)C2=CC=CC=C2,2618-96-4,N-(benzenesulfonyl)benzenesulfonamide,DMF,CN(C)C=O,3.66,Ejoc202001649-sup-00001-misc_information.pdf
1159,1159,T,88-89-1,C1=C(C=C(C(=C1[N+](=O)[O-])O)[N+](=O)[O-])[N+](=O)[O-],88-89-1,"2,4,6-trinitrophenol",DMF,CN(C)C=O,1.1,Ejoc202001649-sup-00001-misc_information.pdf
1160,1160,,131-73-7,C1=C(C=C(C(=C1[N+](=O)[O-])NC2=C(C=C(C=C2[N+](=O)[O-])[N+](=O)[O-])[N+](=O)[O-])[N+](=O)[O-])[N+](=O)[O-],131-73-7,"2,4,6-trinitro-N-(2,4,6-trinitrophenyl)aniline",DMF,CN(C)C=O,1.28,Ejoc202001649-sup-00001-misc_information.pdf
1161,1161,T,7647-01-0,Cl,7647-01-0,chlorane,DMF,CN(C)C=O,2.36,Ejoc202001649-sup-00001-misc_information.pdf
1162,1162,T,2725-55-5,C1=CC(=CC=C1S(=O)(=O)NS(=O)(=O)C2=CC=C(C=C2)Cl)Cl,2725-55-5,4-chloro-N-(4-chlorophenyl)sulfonylbenzenesulfonamide,DMF,CN(C)C=O,3.46,Ejoc202001649-sup-00001-misc_information.pdf