,Unnamed: 0,checking?,solute,solute SMILES,computed CAS,computed IUPAC,solvent,solvent SMILES,pka,ref
702,702,,3_NO2_C6H4_SO2_NH_SO2_C6H3_3_NO2_4_Cl,no matches,-,-,MeCN,CC#N,7.84,pKa_values_of_acids_in_acetonitrile.pdf
703,703,,4_NO2_C6H4_SO2_NH_SO2_C6H3_3_NO2_4_Cl,no matches,-,-,MeCN,CC#N,7.82,pKa_values_of_acids_in_acetonitrile.pdf
704,704,,C6H5_CHTf2,no matches,-,-,MeCN,CC#N,7.73,pKa_values_of_acids_in_acetonitrile.pdf
705,705,,H2SO4,OS(=O)(=O)O,7664-93-9,sulfuric acid,MeCN,CC#N,7.6,pKa_values_of_acids_in_acetonitrile.pdf
706,706,,C6F5_SO2_NH_SO2_C6H4_4_Cl,no matches,-,-,MeCN,CC#N,7.55,pKa_values_of_acids_in_acetonitrile.pdf
707,707,,(4_Cl_3_NO2_C6H3_SO2)2NH,no matches,-,-,MeCN,CC#N,7.47,pKa_values_of_acids_in_acetonitrile.pdf
708,708,,Me_TCNP,no matches,-,-,MeCN,CC#N,7.36,pKa_values_of_acids_in_acetonitrile.pdf
709,709,,4_Cl_C6H4_SO3H,no matches,-,-,MeCN,CC#N,7.0,pKa_values_of_acids_in_acetonitrile.pdf
710,710,,[4_MeO_C6H4][CF3]_NTPA_[H8],no matches,-,-,MeCN,CC#N,6.83,pKa_values_of_acids_in_acetonitrile.pdf
711,711,,[Ph][C8F17]_NTPA_[H8],no matches,-,-,MeCN,CC#N,6.69,pKa_values_of_acids_in_acetonitrile.pdf
712,712,,[Ph][CF3]_NTPA_[H8],no matches,-,-,MeCN,CC#N,6.68,pKa_values_of_acids_in_acetonitrile.pdf
713,713,,C6F5_SO2_NH_SO2_C6H4_3_NO2,no matches,-,-,MeCN,CC#N,6.68,pKa_values_of_acids_in_acetonitrile.pdf
714,714,,[Ph][C4F9]_NTPA_[H8],no matches,-,-,MeCN,CC#N,6.65,pKa_values_of_acids_in_acetonitrile.pdf
715,715,,C6F5_SO2_NH_SO2_C6H4_4_NO2,no matches,-,-,MeCN,CC#N,6.6,pKa_values_of_acids_in_acetonitrile.pdf
716,716,,3_NO2_C6H4_SO3H,no matches,-,-,MeCN,CC#N,6.4,pKa_values_of_acids_in_acetonitrile.pdf
717,717,,[4_MeO_C6H4][CF3]_NTPA,no matches,-,-,MeCN,CC#N,6.35,pKa_values_of_acids_in_acetonitrile.pdf
718,718,,[Ph][CF3]_NTPA,no matches,-,-,MeCN,CC#N,6.33,pKa_values_of_acids_in_acetonitrile.pdf
719,719,,4_NO2_C6H4_SO3H,no matches,-,-,MeCN,CC#N,6.3,pKa_values_of_acids_in_acetonitrile.pdf
720,720,,[4_F_C6H4][CF3]_NTPA_[H8],no matches,-,-,MeCN,CC#N,6.22,pKa_values_of_acids_in_acetonitrile.pdf
721,721,,3_NO2_C6H4_SO2_CH(CN)2,no matches,-,-,MeCN,CC#N,6.16,pKa_values_of_acids_in_acetonitrile.pdf
722,722,,C6F5_SO2_NH_SO2_C6H3_3_NO2_4Cl,no matches,-,-,MeCN,CC#N,6.16,pKa_values_of_acids_in_acetonitrile.pdf
723,723,,4_MeO_C6H4_C(=NTf)_NH_Tf,no matches,-,-,MeCN,CC#N,6.05,pKa_values_of_acids_in_acetonitrile.pdf
724,724,,4_NO2_C6H4_SO2_CH(CN)2,no matches,-,-,MeCN,CC#N,6.01,pKa_values_of_acids_in_acetonitrile.pdf
725,725,,Tos_NH_Tf,no matches,-,-,MeCN,CC#N,5.82,pKa_values_of_acids_in_acetonitrile.pdf
726,726,,4_Me_C6H4_C(=NTf)_NH_Tf,no matches,-,-,MeCN,CC#N,5.82,pKa_values_of_acids_in_acetonitrile.pdf
727,727,,C6H5_C(=NTf)_NH_Tf,no matches,-,-,MeCN,CC#N,5.68,pKa_values_of_acids_in_acetonitrile.pdf
728,728,,H_TCNP,no matches,-,-,MeCN,CC#N,5.64,pKa_values_of_acids_in_acetonitrile.pdf
729,729,,C6H5_SO2_NH_Tf,no matches,-,-,MeCN,CC#N,5.52,pKa_values_of_acids_in_acetonitrile.pdf
730,730,T,HBr,Br,10035-10-6,bromane,MeCN,CC#N,5.4,pKa_values_of_acids_in_acetonitrile.pdf
731,731,,4_F_C6H4_C(=NTf)_NH_Tf,no matches,-,-,MeCN,CC#N,5.29,pKa_values_of_acids_in_acetonitrile.pdf
732,732,,"2,4,6_(SO2F)3_Phenol",no matches,-,-,MeCN,CC#N,5.22,pKa_values_of_acids_in_acetonitrile.pdf
733,733,,4_Cl_C6H4_C(=NTf)_NH_Tf,no matches,-,-,MeCN,CC#N,5.2,pKa_values_of_acids_in_acetonitrile.pdf
734,734,,(C6F5_SO2)2NH,no matches,-,-,MeCN,CC#N,5.08,pKa_values_of_acids_in_acetonitrile.pdf
735,735,,CH(CN)3,no matches,-,-,MeCN,CC#N,5.0,pKa_values_of_acids_in_acetonitrile.pdf
736,736,,4_Cl_C6H4_SO2_NH_Tf,no matches,-,-,MeCN,CC#N,4.98,pKa_values_of_acids_in_acetonitrile.pdf
737,737,,"[3,5_(CF3)2_C6H3]_JINGLE",no matches,-,-,MeCN,CC#N,4.97,pKa_values_of_acids_in_acetonitrile.pdf
738,738,,4_Cl_C6H4_SO(=NTf)_NH_Tos,no matches,-,-,MeCN,CC#N,4.78,pKa_values_of_acids_in_acetonitrile.pdf
739,739,,4_NO2_C6H4_C(=NTf)_NH_Tf,no matches,-,-,MeCN,CC#N,4.63,pKa_values_of_acids_in_acetonitrile.pdf
740,740,,"2,4,6-Tf3Phenol",no matches,-,-,MeCN,CC#N,4.44,pKa_values_of_acids_in_acetonitrile.pdf
741,741,T,(CN)2C=C(CN)OH,OC(C#N)=C(C#N)C#N,27062-39-1,"2-hydroxyethene-1,1,2-tricarbonitrile",MeCN,CC#N,4.36,pKa_values_of_acids_in_acetonitrile.pdf
742,742,,4_NO2_C6H4_SO2_NH_Tf,no matches,-,-,MeCN,CC#N,4.04,pKa_values_of_acids_in_acetonitrile.pdf
743,743,,4-Cl-C6H4-SO(=NTf)-NH-SO2-C6H4-4-Cl,no matches,-,-,MeCN,CC#N,4.0,pKa_values_of_acids_in_acetonitrile.pdf
744,744,,2.4-(NO2)2-C6H3-SO3H,no matches,-,-,MeCN,CC#N,3.96,pKa_values_of_acids_in_acetonitrile.pdf
745,745,,"2,3,5-tricyanocyclopentadiene",N#CC1C=C(C#N)C(=C1)C#N,"1,3-Cyclopentadiene-2,3,5-tricarbonitrile","cyclopenta-2,5-diene-1,2,4-tricarbonitrile",MeCN,CC#N,3.65,pKa_values_of_acids_in_acetonitrile.pdf
746,746,,4-Cl-C6H4-SO(=NTf)-NH-SO2-C6H4-4-NO2,no matches,-,-,MeCN,CC#N,3.3,pKa_values_of_acids_in_acetonitrile.pdf
747,747,,HI,I,10034-85-2,iodane,MeCN,CC#N,2.8,pKa_values_of_acids_in_acetonitrile.pdf
748,748,,120-72-9,C1=CC=C2C(=C1)C=CN2,-,-,MeCN,CC#N,32.57,Ejoc202001649-sup-00001-misc_information.pdf
749,749,,1354970-98-1,no matches,-,-,MeCN,CC#N,30.86,Ejoc202001649-sup-00001-misc_information.pdf
750,750,,6960-42-5,C1=CC2=C(C(=C1)[N+](=O)[O-])NC=C2,6960-42-5,7-nitro-1H-indole,MeCN,CC#N,29.99,Ejoc202001649-sup-00001-misc_information.pdf
751,751,,608-08-2,CC(=O)OC1=CNC2=CC=CC=C21,608-08-2,1H-indol-3-yl acetate,MeCN,CC#N,29.97,Ejoc202001649-sup-00001-misc_information.pdf
752,752,,108-95-2,C1=CC=C(C=C1)O,108-95-2,phenol,MeCN,CC#N,29.2,Ejoc202001649-sup-00001-misc_information.pdf
753,753,,2128672-84-2,C1=CC(=CC=C1C(=O)NC2=NNC(=S)C=C2)F,-,4-fluoro-N-(6-sulfanylidene-1H-pyridazin-3-yl)benzamide,MeCN,CC#N,28.85,Ejoc202001649-sup-00001-misc_information.pdf
754,754,,17823-38-0,C(#N)C1=C(C(=C(C(=C1F)F)N)F)F,17823-38-0,"4-amino-2,3,5,6-tetrafluorobenzonitrile",MeCN,CC#N,28.78,Ejoc202001649-sup-00001-misc_information.pdf
755,755,,1018330-43-2,no SMILES,654055-01-3,"2-(2,4-dihydroxyphenyl)-3,5,7-trihydroxychromen-4-one;dihydrate",MeCN,CC#N,28.77,Ejoc202001649-sup-00001-misc_information.pdf
756,756,,6146-52-7,C1=CC2=C(C=CN2)C=C1[N+](=O)[O-],6146-52-7,5-nitro-1H-indole,MeCN,CC#N,28.18,Ejoc202001649-sup-00001-misc_information.pdf
757,757,,73482-93-6,CCOC(=O)CC(C)(CC(=O)OCC)O,73489-84-6,diethyl 3-hydroxy-3-methylpentanedioate,MeCN,CC#N,28.14,Ejoc202001649-sup-00001-misc_information.pdf
758,758,,101-20-2,C1=CC(=CC=C1NC(=O)NC2=CC(=C(C=C2)Cl)Cl)Cl,101-20-2,"1-(4-chlorophenyl)-3-(3,4-dichlorophenyl)urea",MeCN,CC#N,27.95,Ejoc202001649-sup-00001-misc_information.pdf
759,759,,4769-97-5,C1=CC2=C(C=CN2)C(=C1)[N+](=O)[O-],4769-97-5,4-nitro-1H-indole,MeCN,CC#N,27.89,Ejoc202001649-sup-00001-misc_information.pdf
760,760,,4769-96-4,C1=CC(=CC2=C1C=CN2)[N+](=O)[O-],4769-96-4,6-nitro-1H-indole,MeCN,CC#N,27.79,Ejoc202001649-sup-00001-misc_information.pdf
761,761,,665011-18-7,no matches,-,-,MeCN,CC#N,27.59,Ejoc202001649-sup-00001-misc_information.pdf
762,762,,2376448-26-7,C1=CC(=C(C(=C1)Cl)C2=C(C(=C(C=C2Cl)Cl)Cl)Cl)Cl,74472-40-5,"1,2,3,5-tetrachloro-4-(2,6-dichlorophenyl)benzene",MeCN,CC#N,27.21,Ejoc202001649-sup-00001-misc_information.pdf
763,763,,1/2/55,C1CC2C3C(C1)SC4CCC5C(C4)OCCOCCOCCOCCOCCOC6CC(S2)CCC6SC7CCCC(C7OCCOCCOCCOCCOCCO3)S5,388569-88-8,"3,6,9,12,15,18,32,35,38,41,44,47-dodecaoxa-25,54,58,60-tetrathiaheptacyclo[28.27.1.12,55.121,49.019,24.026,31.048,53]hexacontane",MeCN,CC#N,27.19,Ejoc202001649-sup-00001-misc_information.pdf
764,764,,77758-24-8,CCOC(=N)C1=CC(=C(C=C1)OC)Br,777828-03-2,ethyl 3-bromo-4-methoxybenzenecarboximidate,MeCN,CC#N,27.12,Ejoc202001649-sup-00001-misc_information.pdf
765,765,,130774-57-1,no matches,-,-,MeCN,CC#N,27.06,Ejoc202001649-sup-00001-misc_information.pdf
766,766,,2408-04-0,C1=CC(=CC=C1CS(=O)(=O)C(F)(F)F)F,-,1-fluoro-4-(trifluoromethylsulfonylmethyl)benzene,MeCN,CC#N,27.0,Ejoc202001649-sup-00001-misc_information.pdf
767,767,,58432-62-5,CC1=CC=CC=C1C(C)C#N,-,2-(2-methylphenyl)propanenitrile,MeCN,CC#N,26.98,Ejoc202001649-sup-00001-misc_information.pdf
768,768,T,70-55-3,CC1=CC=C(C=C1)S(=O)(=O)N,70-55-3,4-methylbenzenesulfonamide,MeCN,CC#N,26.95,Ejoc202001649-sup-00001-misc_information.pdf
769,769,,4/8/10,C1C2(COC(O1)CCCN)COC(OC2)CCCN,21587-74-6,"3-[3-(3-aminopropyl)-2,4,8,10-tetraoxaspiro[5.5]undecan-9-yl]propan-1-amine",MeCN,CC#N,26.89,Ejoc202001649-sup-00001-misc_information.pdf
770,770,,210486-32-1,C1=CC=C2C(=C1)C=CC=C2NC(=O)CF,318-85-4,2-fluoro-N-naphthalen-1-ylacetamide,MeCN,CC#N,26.87,Ejoc202001649-sup-00001-misc_information.pdf
771,771,T,98-10-2,C1=CC=C(C=C1)S(=O)(=O)N,98-10-2,benzenesulfonamide,MeCN,CC#N,26.63,Ejoc202001649-sup-00001-misc_information.pdf
772,772,,1354970-97-0,no SMILES,654055-01-3,"2-(2,4-dihydroxyphenyl)-3,5,7-trihydroxychromen-4-one;dihydrate",MeCN,CC#N,26.58,Ejoc202001649-sup-00001-misc_information.pdf
773,773,T,98-17-9,C1=CC(=CC(=C1)O)C(F)(F)F,98-17-9,3-(trifluoromethyl)phenol,MeCN,CC#N,26.5,Ejoc202001649-sup-00001-misc_information.pdf
774,774,,653-22-5,CC(=O)NC1=C(C(=C(C(=C1F)F)F)F)F,653-22-5,"N-(2,3,4,5,6-pentafluorophenyl)acetamide",MeCN,CC#N,26.45,Ejoc202001649-sup-00001-misc_information.pdf
775,775,,39077-43-5,C1=CC=C(C=C1)NC2=C(C(=NC(=C2F)F)F)F,-,"2,3,5,6-tetrafluoro-N-phenylpyridin-4-amine",MeCN,CC#N,26.36,Ejoc202001649-sup-00001-misc_information.pdf
776,776,,1821-27-8,C1=CC(=CC=C1NC2=CC=C(C=C2)[N+](=O)[O-])[N+](=O)[O-],1821-27-8,4-nitro-N-(4-nitrophenyl)aniline,MeCN,CC#N,26.18,Ejoc202001649-sup-00001-misc_information.pdf
777,777,,1448617-67-1,CC1=C(C(=NN1)C(F)(F)F)CC2=C(C3=C(S2)N(C(=O)N(C3=O)C)C(C)C)C(=O)N4CC(CO4)(C)O,-,"5-(4-hydroxy-4-methyl-1,2-oxazolidine-2-carbonyl)-3-methyl-6-[[5-methyl-3-(trifluoromethyl)-1H-pyrazol-4-yl]methyl]-1-propan-2-ylthieno[2,3-d]pyrimidine-2,4-dione",MeCN,CC#N,26.18,Ejoc202001649-sup-00001-misc_information.pdf
778,778,T,402-46-0,C1=CC(=CC=C1F)S(=O)(=O)N,402-46-0,4-fluorobenzenesulfonamide,MeCN,CC#N,26.16,Ejoc202001649-sup-00001-misc_information.pdf
779,779,,1945-78-4,C1=CC=C2C(=C1)N=C(S2)CC3=NC4=CC=CC=C4S3,1945-78-4,"2-(1,3-benzothiazol-2-ylmethyl)-1,3-benzothiazole",MeCN,CC#N,26.16,Ejoc202001649-sup-00001-misc_information.pdf
780,780,,42238-33-5,no matches,-,-,MeCN,CC#N,26.16,Ejoc202001649-sup-00001-misc_information.pdf
781,781,,5457-28-3,C1=CC=C2C(=C1)C(=CN2)C#N,5457-28-3,1H-indole-3-carbonitrile,MeCN,CC#N,26.01,Ejoc202001649-sup-00001-misc_information.pdf
782,782,,98-64-6,no SMILES,654055-01-3,"2-(2,4-dihydroxyphenyl)-3,5,7-trihydroxychromen-4-one;dihydrate",MeCN,CC#N,25.85,Ejoc202001649-sup-00001-misc_information.pdf
783,783,,triazine 1,CSC1=NC2=NN=C(C(=O)N2N1)[N+](=O)[O-],123606-06-4,"7-methylsulfanyl-3-nitro-6H-[1,2,4]triazolo[5,1-c][1,2,4]triazin-4-one",MeCN,CC#N,25.85,Ejoc202001649-sup-00001-misc_information.pdf
784,784,,2408-22-2,C1=C(C=C(C(=C1C(F)(F)F)F)F)Br,240122-25-2,"5-bromo-1,2-difluoro-3-(trifluoromethyl)benzene",MeCN,CC#N,25.62,Ejoc202001649-sup-00001-misc_information.pdf
785,785,T,402-45-9,C1=CC(=CC=C1C(F)(F)F)O,402-45-9,4-(trifluoromethyl)phenol,MeCN,CC#N,25.5,Ejoc202001649-sup-00001-misc_information.pdf
786,786,,1449332-70-0,no matches,-,-,MeCN,CC#N,25.47,Ejoc202001649-sup-00001-misc_information.pdf
787,787,,830-43-3,C1=CC(=CC=C1C(F)(F)F)S(=O)(=O)N,830-43-3,4-(trifluoromethyl)benzenesulfonamide,MeCN,CC#N,25.24,Ejoc202001649-sup-00001-misc_information.pdf
788,788,T,672-58-2,C1=CC(=CC(=C1)S(=O)(=O)N)C(F)(F)F,672-58-2,3-(trifluoromethyl)benzenesulfonamide,MeCN,CC#N,25.2,Ejoc202001649-sup-00001-misc_information.pdf
789,789,,(4-Me2N-C6F4)(C6F5)NH,no matches,-,-,MeCN,CC#N,25.13,Ejoc202001649-sup-00001-misc_information.pdf
790,790,,1267525-01-8,no matches,-,-,MeCN,CC#N,25.08,Ejoc202001649-sup-00001-misc_information.pdf
791,791,,80588-36-9,no matches,-,-,MeCN,CC#N,24.96,Ejoc202001649-sup-00001-misc_information.pdf
792,792,T,444-30-4,C1=CC=C(C(=C1)C(F)(F)F)O,444-30-4,2-(trifluoromethyl)phenol,MeCN,CC#N,24.9,Ejoc202001649-sup-00001-misc_information.pdf
793,793,,587-90-6,C1=CC(=CC=C1NC(=O)NC2=CC=C(C=C2)[N+](=O)[O-])[N+](=O)[O-],-,-,MeCN,CC#N,24.71,Ejoc202001649-sup-00001-misc_information.pdf
794,794,T,121-52-8,C1=CC(=CC(=C1)S(=O)(=O)N)[N+](=O)[O-],121-52-8,3-nitrobenzenesulfonamide,MeCN,CC#N,24.63,Ejoc202001649-sup-00001-misc_information.pdf
795,795,T,58956-76-6,C1(=C(C(=C(C(=C1C(F)(F)F)C(F)(F)F)N)C(F)(F)F)C(F)(F)F)C(F)(F)F,58956-76-6,"2,3,4,5,6-pentakis(trifluoromethyl)aniline",MeCN,CC#N,24.57,Ejoc202001649-sup-00001-misc_information.pdf
796,796,,6325-93-5,C1=CC(=CC=C1[N+](=O)[O-])S(=O)(=O)N,6325-93-5,4-nitrobenzenesulfonamide,MeCN,CC#N,24.57,Ejoc202001649-sup-00001-misc_information.pdf
797,797,,1449332-69-7,C1=CN=CC=C1C=NOC=O,-,-,MeCN,CC#N,24.51,Ejoc202001649-sup-00001-misc_information.pdf
798,798,T,27053-34-5,C1C2=C(C3=C1C(=C(C(=C3F)F)F)F)C(=C(C(=C2F)F)F)F,27053-34-5,"1,2,3,4,5,6,7,8-octafluoro-9H-fluorene",MeCN,CC#N,24.49,Ejoc202001649-sup-00001-misc_information.pdf
799,799,,194222-97-4,C1=CC(=CC=C1CS(=O)(=O)C(F)(F)F)C(F)(F)F,194222-97-4,1-(trifluoromethyl)-4-(trifluoromethylsulfonylmethyl)benzene,MeCN,CC#N,24.44,Ejoc202001649-sup-00001-misc_information.pdf
800,800,,454203-57-7,no matches,-,-,MeCN,CC#N,24.31,Ejoc202001649-sup-00001-misc_information.pdf
801,801,,3752-73-6,C1=CC=C(C(=C1)OC(F)(F)F)S(=O)(=O)N,37526-59-3,2-(trifluoromethoxy)benzenesulfonamide,MeCN,CC#N,24.11,Ejoc202001649-sup-00001-misc_information.pdf
802,802,,1580000-57-2,COC1=CC=CC=C1N2CCN(CC2)CCCCNC(=O)C3=CC=C(C=C3)C4=CSC=N4,OS-3-106,"N-[4-[4-(2-methoxyphenyl)piperazin-1-yl]butyl]-4-(1,3-thiazol-4-yl)benzamide",MeCN,CC#N,24.03,Ejoc202001649-sup-00001-misc_information.pdf
803,803,,1535-92-8,C1(=C(C(=C(C(=C1F)F)F)F)F)NC2=C(C(=C(C(=C2F)F)F)F)F,1535-92-8,"2,3,4,5,6-pentafluoro-N-(2,3,4,5,6-pentafluorophenyl)aniline",MeCN,CC#N,23.98,Ejoc202001649-sup-00001-misc_information.pdf
804,804,,"3,5-F2-C6H3-CH2-Tf",no matches,-,-,MeCN,CC#N,23.96,Ejoc202001649-sup-00001-misc_information.pdf
805,805,T,205-94-7,C1=CC=C2C3=C4C(C2=C1)C5=CC=CC=C5C4=CC=C3,205-94-7,fluoradene,MeCN,CC#N,23.92,Ejoc202001649-sup-00001-misc_information.pdf
806,806,,489-98-5,C1=C(C=C(C(=C1[N+](=O)[O-])N)[N+](=O)[O-])[N+](=O)[O-],489-98-5,"2,4,6-trinitroaniline",MeCN,CC#N,23.87,Ejoc202001649-sup-00001-misc_information.pdf
807,807,T,349-58-6,C1=C(C=C(C=C1C(F)(F)F)O)C(F)(F)F,349-58-6,"3,5-bis(trifluoromethyl)phenol",MeCN,CC#N,23.8,Ejoc202001649-sup-00001-misc_information.pdf
808,808,,193686-70-3,C1=CC=C2C(=C1)C=C(N2)[N+](=O)[O-],60544-75-4,2-nitro-1H-indole,MeCN,CC#N,23.64,Ejoc202001649-sup-00001-misc_information.pdf
809,809,T,3002-30-0,COC(=O)C1C2=CC=CC=C2C3=CC=CC=C13,3002-30-0,methyl 9H-fluorene-9-carboxylate,MeCN,CC#N,23.54,Ejoc202001649-sup-00001-misc_information.pdf
810,810,T,64-19-7,CC(=O)O,64-19-7,acetic acid,MeCN,CC#N,23.5,Ejoc202001649-sup-00001-misc_information.pdf
811,811,,80588-40-5,no matches,-,-,MeCN,CC#N,23.22,Ejoc202001649-sup-00001-misc_information.pdf
812,812,,73622-52-3,no SMILES,654055-01-3,"2-(2,4-dihydroxyphenyl)-3,5,7-trihydroxychromen-4-one;dihydrate",MeCN,CC#N,23.19,Ejoc202001649-sup-00001-misc_information.pdf
813,813,,110-44-1,CC=CC=CC(=O)O,22500-92-1,"hexa-2,4-dienoic acid",MeCN,CC#N,22.97,Ejoc202001649-sup-00001-misc_information.pdf
814,814,T,1582-05-4,CCOC(=O)C(C1=C(C(=C(C(=C1F)F)F)F)F)C(=O)OCC,1582-05-4,"diethyl 2-(2,3,4,5,6-pentafluorophenyl)propanedioate",MeCN,CC#N,22.88,Ejoc202001649-sup-00001-misc_information.pdf
815,815,,88-75-5,C1=CC=C(C(=C1)[N+](=O)[O-])O,88-75-5,2-nitrophenol,MeCN,CC#N,22.85,Ejoc202001649-sup-00001-misc_information.pdf
816,816,,434957-15-0,C1=C(C=C(C=C1C(F)(F)F)C(F)(F)F)CS(=O)(=O)C(F)(F)F,434957-15-0,"1,3-bis(trifluoromethyl)-5-(trifluoromethylsulfonylmethyl)benzene",MeCN,CC#N,22.84,Ejoc202001649-sup-00001-misc_information.pdf
817,817,,58432-44-3,no matches,-,-,MeCN,CC#N,22.8,Ejoc202001649-sup-00001-misc_information.pdf
818,818,,302-79-4,CC1=C(C(CCC1)(C)C)C=CC(=CC=CC(=CC(=O)O)C)C,3555-80-4,"3,7-dimethyl-9-(2,6,6-trimethylcyclohexen-1-yl)nona-2,4,6,8-tetraenoic acid",MeCN,CC#N,22.78,Ejoc202001649-sup-00001-misc_information.pdf
819,819,,4770-03-0,C1=CC=C2C(=C1)C(=CN2)[N+](=O)[O-],4770-03-0,3-nitro-1H-indole,MeCN,CC#N,22.77,Ejoc202001649-sup-00001-misc_information.pdf
820,820,,778-36-9,C1(=C(C(=C(C(=C1F)F)S(=O)(=O)N)F)F)F,778-36-9,"2,3,4,5,6-pentafluorobenzenesulfonamide",MeCN,CC#N,22.27,Ejoc202001649-sup-00001-misc_information.pdf
821,821,,52345-34-3,no matches,-,-,MeCN,CC#N,21.94,Ejoc202001649-sup-00001-misc_information.pdf
822,822,,213542-80-4,no matches,-,-,MeCN,CC#N,21.92,Ejoc202001649-sup-00001-misc_information.pdf
823,823,T,65-85-0,C1=CC=C(C=C1)C(=O)O,65-85-0,benzoic acid,MeCN,CC#N,21.5,Ejoc202001649-sup-00001-misc_information.pdf
824,824,,36375-81-2,CCC(=O)C1=C(C=C(C=C1)Br)N,36372-62-0,1-(2-amino-4-bromophenyl)propan-1-one,MeCN,CC#N,21.37,Ejoc202001649-sup-00001-misc_information.pdf
825,825,T,1529-40-4,C1=CC=C2C(=C1)C(C3=CC=CC=C32)C#N,1529-40-4,9H-fluorene-9-carbonitrile,MeCN,CC#N,21.35,Ejoc202001649-sup-00001-misc_information.pdf
826,826,,72-48-0,C1=CC=C2C(=C1)C(=O)C3=C(C2=O)C(=C(C=C3)O)O,72-48-0,"1,2-dihydroxyanthracene-9,10-dione",MeCN,CC#N,21.23,Ejoc202001649-sup-00001-misc_information.pdf
827,827,,42254-09-1,CCOC1=CC=C(C=C1)N2C(=O)C3=C(NC2=S)NN=C3,-,"5-(4-ethoxyphenyl)-6-sulfanylidene-1,7-dihydropyrazolo[3,4-d]pyrimidin-4-one",MeCN,CC#N,21.1,Ejoc202001649-sup-00001-misc_information.pdf
828,828,,42238-34-6,CCOC(=O)C1=C(SC2=C1CCCC2)NC(=O)OC(C)(C)C,-,"ethyl 2-[(2-methylpropan-2-yl)oxycarbonylamino]-4,5,6,7-tetrahydro-1-benzothiophene-3-carboxylate",MeCN,CC#N,21.09,Ejoc202001649-sup-00001-misc_information.pdf
829,829,,4-CF3-C6F4-CH2-Tf,CCCOC(=O)CC1=CC=C(C=C1)CC(C)C,92729-55-0,propyl 2-[4-(2-methylpropyl)phenyl]acetate,MeCN,CC#N,21.02,Ejoc202001649-sup-00001-misc_information.pdf
830,830,T,1/2/78,C(C(F)(F)F)(C(F)(F)F)(C(F)(F)F)O,1/2/78,"1,1,1,3,3,3-hexafluoro-2-(trifluoromethyl)propan-2-ol",MeCN,CC#N,20.5,Ejoc202001649-sup-00001-misc_information.pdf
831,831,,80588-46-1,no matches,-,-,MeCN,CC#N,20.39,Ejoc202001649-sup-00001-misc_information.pdf
832,832,,42238-36-8,CN(C)CCNCC(=O)N1C2=CC=CC=C2SC3=CC=CC=C31,93995-89-2,2-[2-(dimethylamino)ethylamino]-1-phenothiazin-10-ylethanone,MeCN,CC#N,20.36,Ejoc202001649-sup-00001-misc_information.pdf
833,833,T,118-79-6,C1=C(C=C(C(=C1Br)O)Br)Br,118-79-6,"2,4,6-tribromophenol",MeCN,CC#N,20.34,Ejoc202001649-sup-00001-misc_information.pdf
834,834,T,1213-77-0,CC1=C(C(=C(C(=C1C#N)C#N)C#N)C#N)C#N,1213-77-0,"6-methylbenzene-1,2,3,4,5-pentacarbonitrile",MeCN,CC#N,20.14,Ejoc202001649-sup-00001-misc_information.pdf
835,835,,64934-69-6,CC1=[N+](C(NC1(C)C)(C)C)[O-],64934-83-4,"2,2,4,5,5-pentamethyl-3-oxido-1H-imidazol-3-ium",MeCN,CC#N,20.13,Ejoc202001649-sup-00001-misc_information.pdf
836,836,T,769-39-1,C1=C(C(=C(C(=C1F)F)O)F)F,769-39-1,"2,3,5,6-tetrafluorophenol",MeCN,CC#N,20.1,Ejoc202001649-sup-00001-misc_information.pdf
837,837,T,771-61-9,C1(=C(C(=C(C(=C1F)F)F)F)F)O,771-61-9,"2,3,4,5,6-pentafluorophenol",MeCN,CC#N,20.1,Ejoc202001649-sup-00001-misc_information.pdf
838,838,,64934-68-5,no matches,-,-,MeCN,CC#N,20.07,Ejoc202001649-sup-00001-misc_information.pdf
839,839,,38727-34-3,CCC1=C(C(=CC=C1)CC)N(CC(=O)OCC)C(=O)CCl,38727-55-8,"ethyl 2-(N-(2-chloroacetyl)-2,6-diethylanilino)acetate",MeCN,CC#N,19.87,Ejoc202001649-sup-00001-misc_information.pdf
840,840,T,5386-30-1,C12=C(C(=C(C(=C1O)F)F)F)C(=C(C(=C2F)F)F)F,5386-30-1,"2,3,4,5,6,7,8-heptafluoronaphthalen-1-ol",MeCN,CC#N,19.7,Ejoc202001649-sup-00001-misc_information.pdf
841,841,,133213-11-3,NC1=C(C=C(C=C1[S](F)(=O)=O)[S](F)(=O)=O)[S](F)(=O)=O,-,-,MeCN,CC#N,19.66,Ejoc202001649-sup-00001-misc_information.pdf
842,842,,62325-38-6,no matches,-,-,MeCN,CC#N,19.32,Ejoc202001649-sup-00001-misc_information.pdf
843,843,,1269510-74-8,no SMILES,654055-01-3,"2-(2,4-dihydroxyphenyl)-3,5,7-trihydroxychromen-4-one;dihydrate",MeCN,CC#N,19.2,Ejoc202001649-sup-00001-misc_information.pdf
844,844,T,63264-80-2,C1(C2=C(C3=C1C(=C(C(=C3F)F)F)F)C(=C(C(=C2F)F)F)F)C4=C(C(=C(C(=C4F)F)F)F)F,63264-80-2,"1,2,3,4,5,6,7,8-octafluoro-9-(2,3,4,5,6-pentafluorophenyl)-9H-fluorene",MeCN,CC#N,18.87,Ejoc202001649-sup-00001-misc_information.pdf
845,845,T,727-49-1,C12=C(C(=C(C(=C1F)O)F)F)C(=C(C(=C2F)F)F)F,727-49-1,"1,3,4,5,6,7,8-heptafluoronaphthalen-2-ol",MeCN,CC#N,18.5,Ejoc202001649-sup-00001-misc_information.pdf