,solute,solute SMILES,computed CAS,computed IUPAC,solvent,solvent SMILES,pka,ref
671,Picric acid,C1=C(C=C(C(=C1[N+](=O)[O-])O)[N+](=O)[O-])[N+](=O)[O-],88-89-1,"2,4,6-trinitrophenol",MeCN,CC#N,11,pKa_values_of_acids_in_acetonitrile.pdf
900,88-89-1,C1=C(C=C(C(=C1[N+](=O)[O-])O)[N+](=O)[O-])[N+](=O)[O-],88-89-1,"2,4,6-trinitrophenol",MeCN,CC#N,11,Ejoc202001649-sup-00001-misc_information.pdf
1014,88-89-1,C1=C(C=C(C(=C1[N+](=O)[O-])O)[N+](=O)[O-])[N+](=O)[O-],88-89-1,"2,4,6-trinitrophenol",H2O,O,0.4,Ejoc202001649-sup-00001-misc_information.pdf
1086,88-89-1,C1=C(C=C(C(=C1[N+](=O)[O-])O)[N+](=O)[O-])[N+](=O)[O-],88-89-1,"2,4,6-trinitrophenol",DMSO,CS(=O)C,-1.9,Ejoc202001649-sup-00001-misc_information.pdf
1114,88-89-1,C1=C(C=C(C(=C1[N+](=O)[O-])O)[N+](=O)[O-])[N+](=O)[O-],88-89-1,"2,4,6-trinitrophenol",DCE,C(CCl)Cl,45,Ejoc202001649-sup-00001-misc_information.pdf
1154,88-89-1,C1=C(C=C(C(=C1[N+](=O)[O-])O)[N+](=O)[O-])[N+](=O)[O-],88-89-1,"2,4,6-trinitrophenol",DMF,CN(C)C=O,1.1,Ejoc202001649-sup-00001-misc_information.pdf
1500,Picric acid,C1=C(C=C(C(=C1[N+](=O)[O-])O)[N+](=O)[O-])[N+](=O)[O-],88-89-1,"2,4,6-trinitrophenol",MeCN,CC#N,11,leito_acids
1585,Picric acid,C1=C(C=C(C(=C1[N+](=O)[O-])O)[N+](=O)[O-])[N+](=O)[O-],88-89-1,"2,4,6-trinitrophenol",DCE,C(CCl)Cl,45,leito_acids
203,"4-Chloro-2,6-dinitrophenol",C1=C(C=C(C(=C1[N+](=O)[O-])O)[N+](=O)[O-])Cl,88-87-9,"4-chloro-2,6-dinitrophenol",MeCN,CC#N,15.3,MeCN_Acids_COSMO-RS_2008_Table.pdf
632,"4-fluoro-2,6-dinitroPhenol",C1=C(C=C(C(=C1[N+](=O)[O-])O)[N+](=O)[O-])F,364-32-9,"4-fluoro-2,6-dinitrophenol",MeCN,CC#N,16.17,pKa_values_of_acids_in_acetonitrile.pdf
862,364-32-9,C1=C(C=C(C(=C1[N+](=O)[O-])O)[N+](=O)[O-])F,364-32-9,"4-fluoro-2,6-dinitrophenol",MeCN,CC#N,16.17,Ejoc202001649-sup-00001-misc_information.pdf
643,"2-chloro-4,6-dinitroPhenol",C1=C(C=C(C(=C1[N+](=O)[O-])O)Cl)[N+](=O)[O-],946-31-6,"2-chloro-4,6-dinitrophenol",MeCN,CC#N,14.23,pKa_values_of_acids_in_acetonitrile.pdf
873,946-31-6,C1=C(C=C(C(=C1[N+](=O)[O-])O)Cl)[N+](=O)[O-],946-31-6,"2-chloro-4,6-dinitrophenol",MeCN,CC#N,14.23,Ejoc202001649-sup-00001-misc_information.pdf
1012,946-31-6,C1=C(C=C(C(=C1[N+](=O)[O-])O)Cl)[N+](=O)[O-],946-31-6,"2-chloro-4,6-dinitrophenol",H2O,O,2.01,Ejoc202001649-sup-00001-misc_information.pdf
1632,"2,4,6-(NO2)3-C6H2SO2OH",C1=C(C=C(C(=C1[N+](=O)[O-])S(=O)(=O)O)[N+](=O)[O-])[N+](=O)[O-],2508-19-2,"2,4,6-trinitrobenzenesulfonic acid",DCE,C(CCl)Cl,33.6,leito_acids
38,118-79-6,C1=C(C=C(C(=C1Br)O)Br)Br,118-79-6,"2,4,6-tribromophenol",MeCN,CC#N,20.35,MeCN_Acids_COSMO-RS_2008_Table.pdf
600,"2,4,6-tribromoPhenol",C1=C(C=C(C(=C1Br)O)Br)Br,118-79-6,"2,4,6-tribromophenol",MeCN,CC#N,20.34,pKa_values_of_acids_in_acetonitrile.pdf
830,118-79-6,C1=C(C=C(C(=C1Br)O)Br)Br,118-79-6,"2,4,6-tribromophenol",MeCN,CC#N,20.34,Ejoc202001649-sup-00001-misc_information.pdf
1001,118-79-6,C1=C(C=C(C(=C1Br)O)Br)Br,118-79-6,"2,4,6-tribromophenol",H2O,O,6.1,Ejoc202001649-sup-00001-misc_information.pdf
1063,118-79-6,C1=C(C=C(C(=C1Br)O)Br)Br,118-79-6,"2,4,6-tribromophenol",DMSO,CS(=O)C,8.7,Ejoc202001649-sup-00001-misc_information.pdf
1452,"2,4,6-Br3-phenol",C1=C(C=C(C(=C1Br)O)Br)Br,118-79-6,"2,4,6-tribromophenol",MeCN,CC#N,20.35,leito_acids
189,"3,4,5-Trichlorophenol",C1=C(C=C(C(=C1Cl)Cl)Cl)O,609-19-8,"3,4,5-trichlorophenol",MeCN,CC#N,22.5,MeCN_Acids_COSMO-RS_2008_Table.pdf
209,"2,4,6-Trichlorophenol",C1=C(C=C(C(=C1Cl)O)Cl)Cl,88-06-2,"2,4,6-trichlorophenol",MeCN,CC#N,22.5,MeCN_Acids_COSMO-RS_2008_Table.pdf
455,"2,4,6-Tf3-Phenol",C1=C(C=C(C(=C1S(=O)(=O)C(F)(F)F)O)S(=O)(=O)C(F)(F)F)S(=O)(=O)C(F)(F)F,71571-37-4,"2,4,6-tris(trifluoromethylsulfonyl)phenol",MeCN,CC#N,4.48,DCE_2011_pKa_Table_MeCN.pdf
498,"2,4,6-Tf3-Phenol",C1=C(C=C(C(=C1S(=O)(=O)C(F)(F)F)O)S(=O)(=O)C(F)(F)F)S(=O)(=O)C(F)(F)F,71571-37-4,"2,4,6-tris(trifluoromethylsulfonyl)phenol",MeCN,CC#N,4.48,a_unified_view_to_bronsted_acidity_scales.pdf
738,"2,4,6-Tf3Phenol",C1=C(C=C(C(=C1S(=O)(=O)C(F)(F)F)O)S(=O)(=O)C(F)(F)F)S(=O)(=O)C(F)(F)F,71571-37-4,"2,4,6-tris(trifluoromethylsulfonyl)phenol",MeCN,CC#N,4.44,pKa_values_of_acids_in_acetonitrile.pdf
1556,"2,4,6-SO2CF3-phenol",C1=C(C=C(C(=C1S(=O)(=O)C(F)(F)F)O)S(=O)(=O)C(F)(F)F)S(=O)(=O)C(F)(F)F,71571-37-4,"2,4,6-tris(trifluoromethylsulfonyl)phenol",MeCN,CC#N,4.48,leito_acids
1601,"2,4,6-SO2CF3-phenol",C1=C(C=C(C(=C1S(=O)(=O)C(F)(F)F)O)S(=O)(=O)C(F)(F)F)S(=O)(=O)C(F)(F)F,71571-37-4,"2,4,6-tris(trifluoromethylsulfonyl)phenol",DCE,C(CCl)Cl,38.4,leito_acids
450,"2,4,6-(SO2F)3-Phenol",C1=C(C=C(C(=C1S(=O)(=O)F)O)S(=O)(=O)F)S(=O)(=O)F,882492-01-5,"2-hydroxybenzene-1,3,5-trisulfonyl fluoride",MeCN,CC#N,5.25,DCE_2011_pKa_Table_MeCN.pdf
497,"2,4,6-(SO2F)3-Phenol",C1=C(C=C(C(=C1S(=O)(=O)F)O)S(=O)(=O)F)S(=O)(=O)F,882492-01-5,"2-hydroxybenzene-1,3,5-trisulfonyl fluoride",MeCN,CC#N,5.25,a_unified_view_to_bronsted_acidity_scales.pdf
730,"2,4,6-(SO2F)3-Phenol",C1=C(C=C(C(=C1S(=O)(=O)F)O)S(=O)(=O)F)S(=O)(=O)F,882492-01-5,"2-hydroxybenzene-1,3,5-trisulfonyl fluoride",MeCN,CC#N,5.22,pKa_values_of_acids_in_acetonitrile.pdf
1549,"2,4,6-SO2F-phenol",C1=C(C=C(C(=C1S(=O)(=O)F)O)S(=O)(=O)F)S(=O)(=O)F,882492-01-5,"2-hydroxybenzene-1,3,5-trisulfonyl fluoride",MeCN,CC#N,5.25,leito_acids
1597,"2,4,6-SO2F-phenol",C1=C(C=C(C(=C1S(=O)(=O)F)O)S(=O)(=O)F)S(=O)(=O)F,882492-01-5,"2-hydroxybenzene-1,3,5-trisulfonyl fluoride",DCE,C(CCl)Cl,39,leito_acids
173,"3,5-Dinitrobenzoicacid",C1=C(C=C(C=C1[N+](=O)[O-])[N+](=O)[O-])C(=O)O,99-34-3,"3,5-dinitrobenzoic acid",MeCN,CC#N,17,MeCN_Acids_COSMO-RS_2008_Table.pdf
207,"3,5-Dinitrophenol",C1=C(C=C(C=C1[N+](=O)[O-])O)[N+](=O)[O-],586-11-8,"3,5-dinitrophenol",MeCN,CC#N,20.5,MeCN_Acids_COSMO-RS_2008_Table.pdf
813,434957-15-0,C1=C(C=C(C=C1C(F)(F)F)C(F)(F)F)CS(=O)(=O)C(F)(F)F,434957-15-0,"1,3-bis(trifluoromethyl)-5-(trifluoromethylsulfonylmethyl)benzene",MeCN,CC#N,22.84,Ejoc202001649-sup-00001-misc_information.pdf
213,"3,5-Bis(trifluoromethyl)-phenol",C1=C(C=C(C=C1C(F)(F)F)O)C(F)(F)F,349-58-6,"3,5-bis(trifluoromethyl)phenol",MeCN,CC#N,23.78,MeCN_Acids_COSMO-RS_2008_Table.pdf
574,"3,5-bis(trifluoromethyl)Phenol",C1=C(C=C(C=C1C(F)(F)F)O)C(F)(F)F,349-58-6,"3,5-bis(trifluoromethyl)phenol",MeCN,CC#N,23.8,pKa_values_of_acids_in_acetonitrile.pdf
804,349-58-6,C1=C(C=C(C=C1C(F)(F)F)O)C(F)(F)F,349-58-6,"3,5-bis(trifluoromethyl)phenol",MeCN,CC#N,23.8,Ejoc202001649-sup-00001-misc_information.pdf
990,349-58-6,C1=C(C=C(C=C1C(F)(F)F)O)C(F)(F)F,349-58-6,"3,5-bis(trifluoromethyl)phenol",H2O,O,8.03,Ejoc202001649-sup-00001-misc_information.pdf
1050,349-58-6,C1=C(C=C(C=C1C(F)(F)F)O)C(F)(F)F,349-58-6,"3,5-bis(trifluoromethyl)phenol",DMSO,CS(=O)C,13.2,Ejoc202001649-sup-00001-misc_information.pdf
1436,"3,5-(CF3)2-phenol",C1=C(C=C(C=C1C(F)(F)F)O)C(F)(F)F,349-58-6,"3,5-bis(trifluoromethyl)phenol",MeCN,CC#N,23.78,leito_acids
172,"3,5-Dichlorobenzoicacid",C1=C(C=C(C=C1Cl)Cl)C(=O)O,51-36-5,"3,5-dichlorobenzoic acid",MeCN,CC#N,18.7,MeCN_Acids_COSMO-RS_2008_Table.pdf
191,"3,5-Dichlorophenol",C1=C(C=C(C=C1Cl)Cl)O,591-35-5,"3,5-dichlorophenol",MeCN,CC#N,23.3,MeCN_Acids_COSMO-RS_2008_Table.pdf
126,"1,3,7,9-Tetranitro-10H-phenoxazine",C1=C(C=C2C(=C1[N+](=O)[O-])NC3=C(C=C(C=C3O2)[N+](=O)[O-])[N+](=O)[O-])[N+](=O)[O-],24050-28-0,"1,3,7,9-tetranitro-10H-phenoxazine",MeCN,CC#N,18.8,MeCN_Acids_COSMO-RS_2008_Table.pdf
350,Pyrimidine,C1=C[NH+]=CN=C1,-,pyrimidin-1-ium,MeCN,CC#N,8.72,pKa_values_of_nitrogen_heterocycles.pdf
396,Pyrimidine,C1=C[NH+]=CN=C1,-,pyrimidin-1-ium,H2O,O,1.3,pKa_values_of_nitrogen_heterocycles.pdf
1215,289-95-2,C1=C[NH+]=CN=C1,-,pyrimidin-1-ium,H2O,O,1.3,Bases_pKa_values_MeCN_DMSO_THF_Water.pdf
1276,289-95-2,C1=C[NH+]=CN=C1,-,pyrimidin-1-ium,DMSO,CS(=O)C,0.55,Bases_pKa_values_MeCN_DMSO_THF_Water.pdf
1348,289-95-2,C1=C[NH+]=CN=C1,-,pyrimidin-1-ium,MeCN,CC#N,8.72,Bases_pKa_values_MeCN_DMSO_THF_Water.pdf
1407,289-95-2,C1=C[NH+]=CN=C1,-,pyrimidin-1-ium,THF,C1CCOC1,2.4,Bases_pKa_values_MeCN_DMSO_THF_Water.pdf
374,Uracil,C1=C[NH2+]C(=O)NC1=O,,"1H-pyrimidin-1-ium-2,4-dione",MeCN,CC#N,3.38,pKa_values_of_nitrogen_heterocycles.pdf
407,Uracil,C1=C[NH2+]C(=O)NC1=O,,"1H-pyrimidin-1-ium-2,4-dione",H2O,O,0.5,pKa_values_of_nitrogen_heterocycles.pdf
319,"2,6-diaminoPyridine",C1=CC(=[NH+]C(=C1)N)N,,"pyridin-1-ium-2,6-diamine",MeCN,CC#N,14.77,pKa_values_of_nitrogen_heterocycles.pdf
316,"2,3-diaminopyridine",C1=CC(=C([NH+]=C1)N)N,,"pyridin-1-ium-2,3-diamine",MeCN,CC#N,15.24,pKa_values_of_nitrogen_heterocycles.pdf
168,"2,6-Dinitrobenzoicacid",C1=CC(=C(C(=C1)[N+](=O)[O-])C(=O)O)[N+](=O)[O-],603-12-3,"2,6-dinitrobenzoic acid",MeCN,CC#N,15.8,MeCN_Acids_COSMO-RS_2008_Table.pdf
628,"2,6-dinitroPhenol",C1=CC(=C(C(=C1)[N+](=O)[O-])O)[N+](=O)[O-],573-56-8,"2,6-dinitrophenol",MeCN,CC#N,16.74,pKa_values_of_acids_in_acetonitrile.pdf
858,573-56-8,C1=CC(=C(C(=C1)[N+](=O)[O-])O)[N+](=O)[O-],573-56-8,"2,6-dinitrophenol",MeCN,CC#N,16.74,Ejoc202001649-sup-00001-misc_information.pdf
1008,573-56-8,C1=CC(=C(C(=C1)[N+](=O)[O-])O)[N+](=O)[O-],573-56-8,"2,6-dinitrophenol",H2O,O,3.7,Ejoc202001649-sup-00001-misc_information.pdf
1078,573-56-8,C1=CC(=C(C(=C1)[N+](=O)[O-])O)[N+](=O)[O-],573-56-8,"2,6-dinitrophenol",DMSO,CS(=O)C,4.9,Ejoc202001649-sup-00001-misc_information.pdf
1150,573-56-8,C1=CC(=C(C(=C1)[N+](=O)[O-])O)[N+](=O)[O-],573-56-8,"2,6-dinitrophenol",DMF,CN(C)C=O,6.18,Ejoc202001649-sup-00001-misc_information.pdf
167,"2,6-Dichlorobenzoicacid",C1=CC(=C(C(=C1)Cl)C(=O)O)Cl,50-30-6,"2,6-dichlorobenzoic acid",MeCN,CC#N,17.6,MeCN_Acids_COSMO-RS_2008_Table.pdf
119,"2,6-Dihydroxybenzoicacid",C1=CC(=C(C(=C1)O)C(=O)O)O,303-07-1,"2,6-dihydroxybenzoic acid",MeCN,CC#N,12.6,MeCN_Acids_COSMO-RS_2008_Table.pdf
165,"2,4-Dinitrobenzoicacid",C1=CC(=C(C=C1[N+](=O)[O-])[N+](=O)[O-])C(=O)O,610-30-0,"2,4-dinitrobenzoic acid",MeCN,CC#N,16.1,MeCN_Acids_COSMO-RS_2008_Table.pdf
50,"2,4-dinitrophenol",C1=CC(=C(C=C1[N+](=O)[O-])[N+](=O)[O-])O,51-28-5,"2,4-dinitrophenol",MeCN,CC#N,16.66,MeCN_Acids_COSMO-RS_2008_Table.pdf
230,"2,4-dinitrophenol",C1=CC(=C(C=C1[N+](=O)[O-])[N+](=O)[O-])O,51-28-5,"2,4-dinitrophenol",MeCN,CC#N,16.66,pKa_values_of_acids_and_bases_in_MeCN_DCE_DMSO_H2O_THF_C7_DME.pdf
262,"2,4-dinitrophenol",C1=CC(=C(C=C1[N+](=O)[O-])[N+](=O)[O-])O,51-28-5,"2,4-dinitrophenol",DMSO,CS(=O)C,5.4,pKa_values_of_acids_and_bases_in_MeCN_DCE_DMSO_H2O_THF_C7_DME.pdf
278,"2,4-dinitrophenol",C1=CC(=C(C=C1[N+](=O)[O-])[N+](=O)[O-])O,51-28-5,"2,4-dinitrophenol",H2O,O,4.1,pKa_values_of_acids_and_bases_in_MeCN_DCE_DMSO_H2O_THF_C7_DME.pdf
291,"2,4-dinitrophenol",C1=CC(=C(C=C1[N+](=O)[O-])[N+](=O)[O-])O,51-28-5,"2,4-dinitrophenol",THF,C1CCOC1,16.94,pKa_values_of_acids_and_bases_in_MeCN_DCE_DMSO_H2O_THF_C7_DME.pdf
629,"2,4-dinitroPhenol",C1=CC(=C(C=C1[N+](=O)[O-])[N+](=O)[O-])O,51-28-5,"2,4-dinitrophenol",MeCN,CC#N,16.65,pKa_values_of_acids_in_acetonitrile.pdf
859,51-28-5,C1=CC(=C(C=C1[N+](=O)[O-])[N+](=O)[O-])O,51-28-5,"2,4-dinitrophenol",MeCN,CC#N,16.65,Ejoc202001649-sup-00001-misc_information.pdf
1009,51-28-5,C1=CC(=C(C=C1[N+](=O)[O-])[N+](=O)[O-])O,51-28-5,"2,4-dinitrophenol",H2O,O,4.1,Ejoc202001649-sup-00001-misc_information.pdf
1079,51-28-5,C1=CC(=C(C=C1[N+](=O)[O-])[N+](=O)[O-])O,51-28-5,"2,4-dinitrophenol",DMSO,CS(=O)C,5.1,Ejoc202001649-sup-00001-misc_information.pdf
1151,51-28-5,C1=CC(=C(C=C1[N+](=O)[O-])[N+](=O)[O-])O,51-28-5,"2,4-dinitrophenol",DMF,CN(C)C=O,6.33,Ejoc202001649-sup-00001-misc_information.pdf
1472,"2,4-(NO2)2-phenol",C1=CC(=C(C=C1[N+](=O)[O-])[N+](=O)[O-])O,51-28-5,"2,4-dinitrophenol",MeCN,CC#N,16.66,leito_acids
459,"2,4-(NO2)2-C6H3SO3H",C1=CC(=C(C=C1[N+](=O)[O-])[N+](=O)[O-])S(=O)(=O)O,89-02-1,"2,4-dinitrobenzenesulfonic acid",MeCN,CC#N,3.99,DCE_2011_pKa_Table_MeCN.pdf
971,89-02-1,C1=CC(=C(C=C1[N+](=O)[O-])[N+](=O)[O-])S(=O)(=O)O,89-02-1,"2,4-dinitrobenzenesulfonic acid",MeCN,CC#N,3.96,Ejoc202001649-sup-00001-misc_information.pdf
1134,89-02-1,C1=CC(=C(C=C1[N+](=O)[O-])[N+](=O)[O-])S(=O)(=O)O,89-02-1,"2,4-dinitrobenzenesulfonic acid",DCE,C(CCl)Cl,36,Ejoc202001649-sup-00001-misc_information.pdf
1560,"2,4-(NO2)2-C6H3SO3H",C1=CC(=C(C=C1[N+](=O)[O-])[N+](=O)[O-])S(=O)(=O)O,89-02-1,"2,4-dinitrobenzenesulfonic acid",MeCN,CC#N,3.99,leito_acids
1605,"2,4-(NO2)2-C6H3SO3H",C1=CC(=C(C=C1[N+](=O)[O-])[N+](=O)[O-])S(=O)(=O)O,89-02-1,"2,4-dinitrobenzenesulfonic acid",DCE,C(CCl)Cl,36,leito_acids
373,2-chloro-4-nitroaniline,C1=CC(=C(C=C1[N+](=O)[O-])Cl)[NH3+],-,(2-chloro-4-nitrophenyl)azanium,MeCN,CC#N,3.66,pKa_values_of_nitrogen_heterocycles.pdf
356,4-fluoro-3-nitroAniline,C1=CC(=C(C=C1[NH3+])[N+](=O)[O-])F,,(4-fluoro-3-nitrophenyl)azanium,MeCN,CC#N,7.67,pKa_values_of_nitrogen_heterocycles.pdf
176,4-Chloro-3-nitrobenzoicacid,C1=CC(=C(C=C1C(=O)O)[N+](=O)[O-])Cl,96-99-1,4-chloro-3-nitrobenzoic acid,MeCN,CC#N,18.5,MeCN_Acids_COSMO-RS_2008_Table.pdf
170,"3,4-Dichlorobenzoicacid",C1=CC(=C(C=C1C(=O)O)Cl)Cl,51-44-5,"3,4-dichlorobenzoic acid",MeCN,CC#N,19,MeCN_Acids_COSMO-RS_2008_Table.pdf
372,4-chloro-2-nitroAniline,C1=CC(=C(C=C1Cl)[N+](=O)[O-])[NH3+],,(4-chloro-2-nitrophenyl)azanium,MeCN,CC#N,3.8,pKa_values_of_nitrogen_heterocycles.pdf
366,"2,5-dichloroaniline",C1=CC(=C(C=C1Cl)[NH3+])Cl,,"(2,5-dichlorophenyl)azanium",MeCN,CC#N,6.21,pKa_values_of_nitrogen_heterocycles.pdf
368,"2,5-dichloroaniline",C1=CC(=C(C=C1Cl)[NH3+])Cl,,"(2,5-dichlorophenyl)azanium",MeCN,CC#N,5.06,pKa_values_of_nitrogen_heterocycles.pdf
164,"2,4-Dichlorobenzoicacid",C1=CC(=C(C=C1Cl)Cl)C(=O)O,50-84-0,"2,4-dichlorobenzoic acid",MeCN,CC#N,18.4,MeCN_Acids_COSMO-RS_2008_Table.pdf
166,"2,5-Dichlorobenzenesulfonicacid",C1=CC(=C(C=C1Cl)S(=O)(=O)O)Cl,88-42-6,"2,5-dichlorobenzenesulfonic acid",MeCN,CC#N,6.2,MeCN_Acids_COSMO-RS_2008_Table.pdf
351,"2,4-difluoroAniline",C1=CC(=C(C=C1F)F)[NH3+],,"(2,4-difluorophenyl)azanium",MeCN,CC#N,8.39,pKa_values_of_nitrogen_heterocycles.pdf
199,"3,4-Dinitrophenol",C1=CC(=C(C=C1O)[N+](=O)[O-])[N+](=O)[O-],577-71-9,"3,4-dinitrophenol",MeCN,CC#N,17.9,MeCN_Acids_COSMO-RS_2008_Table.pdf
202,3-Trifluoromethyl-4-nitrophenol,C1=CC(=C(C=C1O)C(F)(F)F)[N+](=O)[O-],88-30-2,4-nitro-3-(trifluoromethyl)phenol,MeCN,CC#N,19.3,MeCN_Acids_COSMO-RS_2008_Table.pdf
200,3-Chloro-4-nitrophenol,C1=CC(=C(C=C1O)Cl)[N+](=O)[O-],491-11-2,3-chloro-4-nitrophenol,MeCN,CC#N,19.9,MeCN_Acids_COSMO-RS_2008_Table.pdf
190,"3,4-Dichlorophenol",C1=CC(=C(C=C1O)Cl)Cl,95-77-2,"3,4-dichlorophenol",MeCN,CC#N,24,MeCN_Acids_COSMO-RS_2008_Table.pdf
135,"3,4-Dichlorobenzenesulfonamide",C1=CC(=C(C=C1S(=O)(=O)N)Cl)Cl,23815-28-3,"3,4-dichlorobenzenesulfonamide",MeCN,CC#N,23.29,MeCN_Acids_COSMO-RS_2008_Table.pdf
346,3-chloroPyridine,C1=CC(=C[NH+]=C1)Cl,,3-chloropyridin-1-ium,MeCN,CC#N,9.55,pKa_values_of_nitrogen_heterocycles.pdf
128,"1,3,9-Trinitro-10H-phenoxazine",C1=CC(=C2C(=C1)OC3=CC(=CC(=C3N2)[N+](=O)[O-])[N+](=O)[O-])[N+](=O)[O-],24050-30-4,"1,3,9-trinitro-10H-phenoxazine",MeCN,CC#N,21.9,MeCN_Acids_COSMO-RS_2008_Table.pdf
175,3-Nitrobenzoicacid,C1=CC(=CC(=C1)[N+](=O)[O-])C(=O)O,121-92-6,3-nitrobenzoic acid,MeCN,CC#N,19.2,MeCN_Acids_COSMO-RS_2008_Table.pdf
174,3-Bromobenzoicacid,C1=CC(=CC(=C1)Br)C(=O)O,585-76-2,3-bromobenzoic acid,MeCN,CC#N,19.5,MeCN_Acids_COSMO-RS_2008_Table.pdf
159,"1,3-Benzenedicarboxylicacid",C1=CC(=CC(=C1)C(=O)O)C(=O)O,121-91-5,"benzene-1,3-dicarboxylic acid",MeCN,CC#N,19.3,MeCN_Acids_COSMO-RS_2008_Table.pdf
27,99726-60-0,C1=CC(=CC(=C1)C(F)(F)F)C(C#N)C#N,99726-60-0,2-[3-(trifluoromethyl)phenyl]propanedinitrile,MeCN,CC#N,14.72,MeCN_Acids_COSMO-RS_2008_Table.pdf
479,3-CF3-C6H4CH(CN)2,C1=CC(=CC(=C1)C(F)(F)F)C(C#N)C#N,99726-60-0,2-[3-(trifluoromethyl)phenyl]propanedinitrile,MeCN,CC#N,14.72,a_unified_view_to_bronsted_acidity_scales.pdf
869,99726-60-0,C1=CC(=CC(=C1)C(F)(F)F)C(C#N)C#N,99726-60-0,2-[3-(trifluoromethyl)phenyl]propanedinitrile,MeCN,CC#N,14.7,Ejoc202001649-sup-00001-misc_information.pdf
1109,99726-60-0,C1=CC(=CC(=C1)C(F)(F)F)C(C#N)C#N,99726-60-0,2-[3-(trifluoromethyl)phenyl]propanedinitrile,DCE,C(CCl)Cl,49,Ejoc202001649-sup-00001-misc_information.pdf
1480,3-CF3-C6H4CH(CN)2,C1=CC(=CC(=C1)C(F)(F)F)C(C#N)C#N,99726-60-0,2-[3-(trifluoromethyl)phenyl]propanedinitrile,MeCN,CC#N,14.72,leito_acids
1582,3-CF3-C6H4CH(CN)2,C1=CC(=CC(=C1)C(F)(F)F)C(C#N)C#N,99726-60-0,2-[3-(trifluoromethyl)phenyl]propanedinitrile,DCE,C(CCl)Cl,49,leito_acids
192,3-Chlorophenol,C1=CC(=CC(=C1)Cl)O,108-43-0,3-chlorophenol,MeCN,CC#N,25,MeCN_Acids_COSMO-RS_2008_Table.pdf
138,3-Chlorobenzenesulfonamide,C1=CC(=CC(=C1)Cl)S(=O)(=O)N,17260-71-8,3-chlorobenzenesulfonamide,MeCN,CC#N,23.8,MeCN_Acids_COSMO-RS_2008_Table.pdf
201,3-Nitrophenol,C1=CC(=CC(=C1)O)[N+](=O)[O-],554-84-7,3-nitrophenol,MeCN,CC#N,23.8,MeCN_Acids_COSMO-RS_2008_Table.pdf
205,3-Trifluoromethylphenol,C1=CC(=CC(=C1)O)C(F)(F)F,98-17-9,3-(trifluoromethyl)phenol,MeCN,CC#N,24.9,MeCN_Acids_COSMO-RS_2008_Table.pdf
211,3-Trifluoromethylphenol,C1=CC(=CC(=C1)O)C(F)(F)F,98-17-9,3-(trifluoromethyl)phenol,MeCN,CC#N,26.5,MeCN_Acids_COSMO-RS_2008_Table.pdf
541,3-trifluoromethylPhenol,C1=CC(=CC(=C1)O)C(F)(F)F,98-17-9,3-(trifluoromethyl)phenol,MeCN,CC#N,26.5,pKa_values_of_acids_in_acetonitrile.pdf
771,98-17-9,C1=CC(=CC(=C1)O)C(F)(F)F,98-17-9,3-(trifluoromethyl)phenol,MeCN,CC#N,26.5,Ejoc202001649-sup-00001-misc_information.pdf
981,98-17-9,C1=CC(=CC(=C1)O)C(F)(F)F,98-17-9,3-(trifluoromethyl)phenol,H2O,O,9.08,Ejoc202001649-sup-00001-misc_information.pdf
1033,98-17-9,C1=CC(=CC(=C1)O)C(F)(F)F,98-17-9,3-(trifluoromethyl)phenol,DMSO,CS(=O)C,15.1,Ejoc202001649-sup-00001-misc_information.pdf
1141,98-17-9,C1=CC(=CC(=C1)O)C(F)(F)F,98-17-9,3-(trifluoromethyl)phenol,DMF,CN(C)C=O,15.7,Ejoc202001649-sup-00001-misc_information.pdf
1426,3-CF3-phenol,C1=CC(=CC(=C1)O)C(F)(F)F,98-17-9,3-(trifluoromethyl)phenol,MeCN,CC#N,26.5,leito_acids
141,3-Nitrobenzenesulfonamide,C1=CC(=CC(=C1)S(=O)(=O)N)[N+](=O)[O-],121-52-8,3-nitrobenzenesulfonamide,MeCN,CC#N,22.95,MeCN_Acids_COSMO-RS_2008_Table.pdf
791,121-52-8,C1=CC(=CC(=C1)S(=O)(=O)N)[N+](=O)[O-],121-52-8,3-nitrobenzenesulfonamide,MeCN,CC#N,24.63,Ejoc202001649-sup-00001-misc_information.pdf
988,121-52-8,C1=CC(=CC(=C1)S(=O)(=O)N)[N+](=O)[O-],121-52-8,3-nitrobenzenesulfonamide,H2O,O,9.34,Ejoc202001649-sup-00001-misc_information.pdf
1043,121-52-8,C1=CC(=CC(=C1)S(=O)(=O)N)[N+](=O)[O-],121-52-8,3-nitrobenzenesulfonamide,DMSO,CS(=O)C,14.9,Ejoc202001649-sup-00001-misc_information.pdf
143,3-Trifluoromethylbenzenesulfonamide,C1=CC(=CC(=C1)S(=O)(=O)N)C(F)(F)F,672-58-2,3-(trifluoromethyl)benzenesulfonamide,MeCN,CC#N,23.53,MeCN_Acids_COSMO-RS_2008_Table.pdf
785,672-58-2,C1=CC(=CC(=C1)S(=O)(=O)N)C(F)(F)F,672-58-2,3-(trifluoromethyl)benzenesulfonamide,MeCN,CC#N,25.2,Ejoc202001649-sup-00001-misc_information.pdf
986,672-58-2,C1=CC(=CC(=C1)S(=O)(=O)N)C(F)(F)F,672-58-2,3-(trifluoromethyl)benzenesulfonamide,H2O,O,9.69,Ejoc202001649-sup-00001-misc_information.pdf
1039,672-58-2,C1=CC(=CC(=C1)S(=O)(=O)N)C(F)(F)F,672-58-2,3-(trifluoromethyl)benzenesulfonamide,DMSO,CS(=O)C,15.2,Ejoc202001649-sup-00001-misc_information.pdf
1144,672-58-2,C1=CC(=CC(=C1)S(=O)(=O)N)C(F)(F)F,672-58-2,3-(trifluoromethyl)benzenesulfonamide,DMF,CN(C)C=O,16.01,Ejoc202001649-sup-00001-misc_information.pdf
139,3-Cyanobenzenesulfonamide,C1=CC(=CC(=C1)S(=O)(=O)N)C#N,3118-68-1,3-cyanobenzenesulfonamide,MeCN,CC#N,23.23,MeCN_Acids_COSMO-RS_2008_Table.pdf
88,95468-16-9,C1=CC(=CC(=C1)S(=O)(=O)NS(=O)(=O)C2=CC=C(C=C2)Cl)[N+](=O)[O-],95468-16-9,N-(4-chlorophenyl)sulfonyl-3-nitrobenzenesulfonamide,MeCN,CC#N,9.17,MeCN_Acids_COSMO-RS_2008_Table.pdf
918,95468-16-9,C1=CC(=CC(=C1)S(=O)(=O)NS(=O)(=O)C2=CC=C(C=C2)Cl)[N+](=O)[O-],95468-16-9,N-(4-chlorophenyl)sulfonyl-3-nitrobenzenesulfonamide,MeCN,CC#N,9.17,Ejoc202001649-sup-00001-misc_information.pdf
1119,95468-16-9,C1=CC(=CC(=C1)S(=O)(=O)NS(=O)(=O)C2=CC=C(C=C2)Cl)[N+](=O)[O-],95468-16-9,N-(4-chlorophenyl)sulfonyl-3-nitrobenzenesulfonamide,DCE,C(CCl)Cl,42.4,Ejoc202001649-sup-00001-misc_information.pdf
695,(3-NO2-C6H4-SO2)2NH,C1=CC(=CC(=C1)S(=O)(=O)NS(=O)(=O)C2=CC=CC(=C2)[N+](=O)[O-])[N+](=O)[O-],116082-80-5,3-nitro-N-(3-nitrophenyl)sulfonylbenzenesulfonamide,MeCN,CC#N,8.16,pKa_values_of_acids_in_acetonitrile.pdf
924,116082-80-5,C1=CC(=CC(=C1)S(=O)(=O)NS(=O)(=O)C2=CC=CC(=C2)[N+](=O)[O-])[N+](=O)[O-],116082-80-5,3-nitro-N-(3-nitrophenyl)sulfonylbenzenesulfonamide,MeCN,CC#N,8.16,Ejoc202001649-sup-00001-misc_information.pdf