,Unnamed: 0,name,solute,solute SMILES,solvent,solvent SMILES,pka,ref,computed CAS,computed IUPAC
701,873,name,1_C10H7_SO3H,no matches,MeCN,CC#N,7.9,pKa_values_of_acids_in_acetonitrile.pdf,-,-
702,874,name,3_NO2_C6H4_SO2_NH_SO2_C6H3_3_NO2_4_Cl,no matches,MeCN,CC#N,7.84,pKa_values_of_acids_in_acetonitrile.pdf,-,-
703,875,name,4_NO2_C6H4_SO2_NH_SO2_C6H3_3_NO2_4_Cl,no matches,MeCN,CC#N,7.82,pKa_values_of_acids_in_acetonitrile.pdf,-,-
704,876,name,C6H5_CHTf2,no matches,MeCN,CC#N,7.73,pKa_values_of_acids_in_acetonitrile.pdf,-,-
705,877,name,H2SO4,,MeCN,CC#N,7.6,pKa_values_of_acids_in_acetonitrile.pdf,-,-
706,878,name,C6F5_SO2_NH_SO2_C6H4_4_Cl,no matches,MeCN,CC#N,7.55,pKa_values_of_acids_in_acetonitrile.pdf,-,-
707,879,name,(4_Cl_3_NO2_C6H3_SO2)2NH,no matches,MeCN,CC#N,7.47,pKa_values_of_acids_in_acetonitrile.pdf,-,-
708,880,name,Me_TCNP,no matches,MeCN,CC#N,7.36,pKa_values_of_acids_in_acetonitrile.pdf,-,-
709,881,name,4_Cl_C6H4_SO3H,no matches,MeCN,CC#N,7.0,pKa_values_of_acids_in_acetonitrile.pdf,-,-
710,882,name,[4_MeO_C6H4][CF3]_NTPA_[H8],no matches,MeCN,CC#N,6.83,pKa_values_of_acids_in_acetonitrile.pdf,-,-
711,883,name,[Ph][C8F17]_NTPA_[H8],no matches,MeCN,CC#N,6.69,pKa_values_of_acids_in_acetonitrile.pdf,-,-
712,884,name,[Ph][CF3]_NTPA_[H8],no matches,MeCN,CC#N,6.68,pKa_values_of_acids_in_acetonitrile.pdf,-,-
713,885,name,C6F5_SO2_NH_SO2_C6H4_3_NO2,no matches,MeCN,CC#N,6.68,pKa_values_of_acids_in_acetonitrile.pdf,-,-
714,886,name,[Ph][C4F9]_NTPA_[H8],no matches,MeCN,CC#N,6.65,pKa_values_of_acids_in_acetonitrile.pdf,-,-
715,887,name,C6F5_SO2_NH_SO2_C6H4_4_NO2,no matches,MeCN,CC#N,6.6,pKa_values_of_acids_in_acetonitrile.pdf,-,-
716,888,name,3_NO2_C6H4_SO3H,no matches,MeCN,CC#N,6.4,pKa_values_of_acids_in_acetonitrile.pdf,-,-
717,889,name,[4_MeO_C6H4][CF3]_NTPA,no matches,MeCN,CC#N,6.35,pKa_values_of_acids_in_acetonitrile.pdf,-,-
718,890,name,[Ph][CF3]_NTPA,no matches,MeCN,CC#N,6.33,pKa_values_of_acids_in_acetonitrile.pdf,-,-
719,891,name,4_NO2_C6H4_SO3H,no matches,MeCN,CC#N,6.3,pKa_values_of_acids_in_acetonitrile.pdf,-,-
720,892,name,[4_F_C6H4][CF3]_NTPA_[H8],no matches,MeCN,CC#N,6.22,pKa_values_of_acids_in_acetonitrile.pdf,-,-
721,893,name,3_NO2_C6H4_SO2_CH(CN)2,no matches,MeCN,CC#N,6.16,pKa_values_of_acids_in_acetonitrile.pdf,-,-
722,894,name,C6F5_SO2_NH_SO2_C6H3_3_NO2_4Cl,no matches,MeCN,CC#N,6.16,pKa_values_of_acids_in_acetonitrile.pdf,-,-
723,895,name,4_MeO_C6H4_C(=NTf)_NH_Tf,no matches,MeCN,CC#N,6.05,pKa_values_of_acids_in_acetonitrile.pdf,-,-
724,896,name,4_NO2_C6H4_SO2_CH(CN)2,no matches,MeCN,CC#N,6.01,pKa_values_of_acids_in_acetonitrile.pdf,-,-
725,897,name,Tos_NH_Tf,no matches,MeCN,CC#N,5.82,pKa_values_of_acids_in_acetonitrile.pdf,-,-
726,898,name,4_Me_C6H4_C(=NTf)_NH_Tf,no matches,MeCN,CC#N,5.82,pKa_values_of_acids_in_acetonitrile.pdf,-,-
727,899,name,C6H5_C(=NTf)_NH_Tf,no matches,MeCN,CC#N,5.68,pKa_values_of_acids_in_acetonitrile.pdf,-,-
728,900,name,H_TCNP,no matches,MeCN,CC#N,5.64,pKa_values_of_acids_in_acetonitrile.pdf,-,-
729,901,name,C6H5_SO2_NH_Tf,no matches,MeCN,CC#N,5.52,pKa_values_of_acids_in_acetonitrile.pdf,-,-
730,902,name,HBr,Br,MeCN,CC#N,5.4,pKa_values_of_acids_in_acetonitrile.pdf,24959-67-9,bromide
731,903,name,4_F_C6H4_C(=NTf)_NH_Tf,no matches,MeCN,CC#N,5.29,pKa_values_of_acids_in_acetonitrile.pdf,-,-
732,904,name,"2,4,6_(SO2F)3_Phenol",no matches,MeCN,CC#N,5.22,pKa_values_of_acids_in_acetonitrile.pdf,-,-
733,905,name,4_Cl_C6H4_C(=NTf)_NH_Tf,no matches,MeCN,CC#N,5.2,pKa_values_of_acids_in_acetonitrile.pdf,-,-
734,906,name,(C6F5_SO2)2NH,no matches,MeCN,CC#N,5.08,pKa_values_of_acids_in_acetonitrile.pdf,-,-
735,907,name,CH(CN)3,,MeCN,CC#N,5.0,pKa_values_of_acids_in_acetonitrile.pdf,-,-
736,908,name,4_Cl_C6H4_SO2_NH_Tf,no matches,MeCN,CC#N,4.98,pKa_values_of_acids_in_acetonitrile.pdf,-,-
737,909,name,"[3,5_(CF3)2_C6H3]_JINGLE",no matches,MeCN,CC#N,4.97,pKa_values_of_acids_in_acetonitrile.pdf,-,-
738,910,name,4_Cl_C6H4_SO(=NTf)_NH_Tos,no matches,MeCN,CC#N,4.78,pKa_values_of_acids_in_acetonitrile.pdf,-,-
739,911,name,4_NO2_C6H4_C(=NTf)_NH_Tf,no matches,MeCN,CC#N,4.63,pKa_values_of_acids_in_acetonitrile.pdf,-,-
740,935,name,"2,4,6-Tf3Phenol",,MeCN,CC#N,4.44,pKa_values_of_acids_in_acetonitrile.pdf,-,-
741,936,name,(CN)2C=C(CN)OH,OC(C#N)=C(C#N)C#N,MeCN,CC#N,4.36,pKa_values_of_acids_in_acetonitrile.pdf,-,"2-hydroxyethene-1,1,2-tricarbonitrile"
742,937,name,4_NO2_C6H4_SO2_NH_Tf,no matches,MeCN,CC#N,4.04,pKa_values_of_acids_in_acetonitrile.pdf,-,-
743,938,name,4-Cl-C6H4-SO(=NTf)-NH-SO2-C6H4-4-Cl,no matches,MeCN,CC#N,4.0,pKa_values_of_acids_in_acetonitrile.pdf,-,-
744,939,name,2.4-(NO2)2-C6H3-SO3H,no matches,MeCN,CC#N,3.96,pKa_values_of_acids_in_acetonitrile.pdf,-,-
745,940,name,"2,3,5-tricyanocyclopentadiene",N#CC1C=C(C#N)C(=C1)C#N,MeCN,CC#N,3.65,pKa_values_of_acids_in_acetonitrile.pdf,"1,3-Cyclopentadiene-2,3,5-tricarbonitrile","cyclopenta-2,5-diene-1,2,4-tricarbonitrile"
746,941,name,4-Cl-C6H4-SO(=NTf)-NH-SO2-C6H4-4-NO2,no matches,MeCN,CC#N,3.3,pKa_values_of_acids_in_acetonitrile.pdf,-,-
747,942,name,HI,I,MeCN,CC#N,2.8,pKa_values_of_acids_in_acetonitrile.pdf,-,-
748,943,CAS,120-72-9,C1=CC=C2C(=C1)C=CN2,MeCN,CC#N,32.57,Ejoc202001649-sup-00001-misc_information.pdf,-,-
749,944,CAS,1354970-98-1,no matches,MeCN,CC#N,30.86,Ejoc202001649-sup-00001-misc_information.pdf,-,-
750,945,CAS,6960-42-5,C1=CC2=C(C(=C1)[N+](=O)[O-])NC=C2,MeCN,CC#N,29.99,Ejoc202001649-sup-00001-misc_information.pdf,-,-
751,946,CAS,608-08-2,CC(=O)OC1=CNC2=CC=CC=C21,MeCN,CC#N,29.97,Ejoc202001649-sup-00001-misc_information.pdf,-,-
752,947,CAS,108-95-2,C1=CC=C(C=C1)O,MeCN,CC#N,29.2,Ejoc202001649-sup-00001-misc_information.pdf,-,-
753,948,CAS,2128672-84-2,C1=CC(=CC=C1C(=O)NC2=NNC(=S)C=C2)F,MeCN,CC#N,28.85,Ejoc202001649-sup-00001-misc_information.pdf,-,-
754,949,CAS,17823-38-0,C(#N)C1=C(C(=C(C(=C1F)F)N)F)F,MeCN,CC#N,28.78,Ejoc202001649-sup-00001-misc_information.pdf,-,-
755,950,CAS,1018330-43-2,no SMILES,MeCN,CC#N,28.77,Ejoc202001649-sup-00001-misc_information.pdf,-,-
756,951,CAS,6146-52-7,C1=CC2=C(C=CN2)C=C1[N+](=O)[O-],MeCN,CC#N,28.18,Ejoc202001649-sup-00001-misc_information.pdf,-,-
757,952,CAS,73482-93-6,CCOC(=O)CC(C)(CC(=O)OCC)O,MeCN,CC#N,28.14,Ejoc202001649-sup-00001-misc_information.pdf,-,-
758,953,CAS,101-20-2,error in recall,MeCN,CC#N,27.95,Ejoc202001649-sup-00001-misc_information.pdf,-,-
759,954,CAS,4769-97-5,C1=CC2=C(C=CN2)C(=C1)[N+](=O)[O-],MeCN,CC#N,27.89,Ejoc202001649-sup-00001-misc_information.pdf,-,-
760,955,CAS,4769-96-4,C1=CC(=CC2=C1C=CN2)[N+](=O)[O-],MeCN,CC#N,27.79,Ejoc202001649-sup-00001-misc_information.pdf,-,-
761,956,CAS,665011-18-7,no matches,MeCN,CC#N,27.59,Ejoc202001649-sup-00001-misc_information.pdf,-,-
762,957,CAS,2376448-26-7,C1=CC(=C(C(=C1)Cl)C2=C(C(=C(C=C2Cl)Cl)Cl)Cl)Cl,MeCN,CC#N,27.21,Ejoc202001649-sup-00001-misc_information.pdf,-,-
763,958,CAS,1/2/55,,MeCN,CC#N,27.19,Ejoc202001649-sup-00001-misc_information.pdf,-,-
764,959,CAS,77758-24-8,CCOC(=N)C1=CC(=C(C=C1)OC)Br,MeCN,CC#N,27.12,Ejoc202001649-sup-00001-misc_information.pdf,-,-
765,960,CAS,130774-57-1,no matches,MeCN,CC#N,27.06,Ejoc202001649-sup-00001-misc_information.pdf,-,-
766,961,CAS,2408-04-0,C1=CC(=CC=C1CS(=O)(=O)C(F)(F)F)F,MeCN,CC#N,27.0,Ejoc202001649-sup-00001-misc_information.pdf,-,-
767,962,CAS,58432-62-5,CC1=CC=CC=C1C(C)C#N,MeCN,CC#N,26.98,Ejoc202001649-sup-00001-misc_information.pdf,-,-
768,963,CAS,70-55-3,CC1=CC=C(C=C1)S(=O)(=O)N,MeCN,CC#N,26.95,Ejoc202001649-sup-00001-misc_information.pdf,-,-
769,964,CAS,4/8/10,,MeCN,CC#N,26.89,Ejoc202001649-sup-00001-misc_information.pdf,-,-
770,965,CAS,210486-32-1,C1=CC=C2C(=C1)C=CC=C2NC(=O)CF,MeCN,CC#N,26.87,Ejoc202001649-sup-00001-misc_information.pdf,-,-
771,966,CAS,98-10-2,C1=CC=C(C=C1)S(=O)(=O)N,MeCN,CC#N,26.63,Ejoc202001649-sup-00001-misc_information.pdf,-,-
772,967,CAS,1354970-97-0,no SMILES,MeCN,CC#N,26.58,Ejoc202001649-sup-00001-misc_information.pdf,-,-
773,968,CAS,98-17-9,C1=CC(=CC(=C1)O)C(F)(F)F,MeCN,CC#N,26.5,Ejoc202001649-sup-00001-misc_information.pdf,-,-
774,969,CAS,653-22-5,CC(=O)NC1=C(C(=C(C(=C1F)F)F)F)F,MeCN,CC#N,26.45,Ejoc202001649-sup-00001-misc_information.pdf,-,-
775,970,CAS,39077-43-5,C1=CC=C(C=C1)NC2=C(C(=NC(=C2F)F)F)F,MeCN,CC#N,26.36,Ejoc202001649-sup-00001-misc_information.pdf,-,-
776,971,CAS,1821-27-8,C1=CC(=CC=C1NC2=CC=C(C=C2)[N+](=O)[O-])[N+](=O)[O-],MeCN,CC#N,26.18,Ejoc202001649-sup-00001-misc_information.pdf,-,-
777,972,CAS,1448617-67-1,CC1=C(C(=NN1)C(F)(F)F)CC2=C(C3=C(S2)N(C(=O)N(C3=O)C)C(C)C)C(=O)N4CC(CO4)(C)O,MeCN,CC#N,26.18,Ejoc202001649-sup-00001-misc_information.pdf,-,-
778,973,CAS,402-46-0,C1=CC(=CC=C1F)S(=O)(=O)N,MeCN,CC#N,26.16,Ejoc202001649-sup-00001-misc_information.pdf,-,-
779,974,CAS,1945-78-4,C1=CC=C2C(=C1)N=C(S2)CC3=NC4=CC=CC=C4S3,MeCN,CC#N,26.16,Ejoc202001649-sup-00001-misc_information.pdf,-,-
780,975,CAS,42238-33-5,no matches,MeCN,CC#N,26.16,Ejoc202001649-sup-00001-misc_information.pdf,-,-
781,976,CAS,5457-28-3,C1=CC=C2C(=C1)C(=CN2)C#N,MeCN,CC#N,26.01,Ejoc202001649-sup-00001-misc_information.pdf,-,-
782,977,CAS,98-64-6,no SMILES,MeCN,CC#N,25.85,Ejoc202001649-sup-00001-misc_information.pdf,-,-
783,978,CAS,triazine 1,,MeCN,CC#N,25.85,Ejoc202001649-sup-00001-misc_information.pdf,-,-
784,979,CAS,2408-22-2,C1=C(C=C(C(=C1C(F)(F)F)F)F)Br,MeCN,CC#N,25.62,Ejoc202001649-sup-00001-misc_information.pdf,-,-
785,980,CAS,402-45-9,C1=CC(=CC=C1C(F)(F)F)O,MeCN,CC#N,25.5,Ejoc202001649-sup-00001-misc_information.pdf,-,-
786,981,CAS,1449332-70-0,no matches,MeCN,CC#N,25.47,Ejoc202001649-sup-00001-misc_information.pdf,-,-
787,982,CAS,830-43-3,C1=CC(=CC=C1C(F)(F)F)S(=O)(=O)N,MeCN,CC#N,25.24,Ejoc202001649-sup-00001-misc_information.pdf,-,-
788,983,CAS,672-58-2,C1=CC(=CC(=C1)S(=O)(=O)N)C(F)(F)F,MeCN,CC#N,25.2,Ejoc202001649-sup-00001-misc_information.pdf,-,-
789,984,name,(4-Me2N-C6F4)(C6F5)NH,,MeCN,CC#N,25.13,Ejoc202001649-sup-00001-misc_information.pdf,-,-
790,985,CAS,1267525-01-8,no matches,MeCN,CC#N,25.08,Ejoc202001649-sup-00001-misc_information.pdf,-,-
791,986,CAS,80588-36-9,error in recall,MeCN,CC#N,24.96,Ejoc202001649-sup-00001-misc_information.pdf,-,-
792,987,CAS,444-30-4,C1=CC=C(C(=C1)C(F)(F)F)O,MeCN,CC#N,24.9,Ejoc202001649-sup-00001-misc_information.pdf,-,-
793,988,CAS,587-90-6,C1=CC(=CC=C1NC(=O)NC2=CC=C(C=C2)[N+](=O)[O-])[N+](=O)[O-],MeCN,CC#N,24.71,Ejoc202001649-sup-00001-misc_information.pdf,-,-
794,989,CAS,121-52-8,C1=CC(=CC(=C1)S(=O)(=O)N)[N+](=O)[O-],MeCN,CC#N,24.63,Ejoc202001649-sup-00001-misc_information.pdf,-,-
795,990,CAS,58956-76-6,C1(=C(C(=C(C(=C1C(F)(F)F)C(F)(F)F)N)C(F)(F)F)C(F)(F)F)C(F)(F)F,MeCN,CC#N,24.57,Ejoc202001649-sup-00001-misc_information.pdf,-,-
796,991,CAS,6325-93-5,C1=CC(=CC=C1[N+](=O)[O-])S(=O)(=O)N,MeCN,CC#N,24.57,Ejoc202001649-sup-00001-misc_information.pdf,-,-
797,992,CAS,1449332-69-7,C1=CN=CC=C1C=NOC=O,MeCN,CC#N,24.51,Ejoc202001649-sup-00001-misc_information.pdf,-,-
798,993,CAS,27053-34-5,C1C2=C(C3=C1C(=C(C(=C3F)F)F)F)C(=C(C(=C2F)F)F)F,MeCN,CC#N,24.49,Ejoc202001649-sup-00001-misc_information.pdf,-,-
799,994,CAS,194222-97-4,C1=CC(=CC=C1CS(=O)(=O)C(F)(F)F)C(F)(F)F,MeCN,CC#N,24.44,Ejoc202001649-sup-00001-misc_information.pdf,-,-
800,995,CAS,454203-57-7,no matches,MeCN,CC#N,24.31,Ejoc202001649-sup-00001-misc_information.pdf,-,-
801,996,CAS,3752-73-6,C1=CC=C(C(=C1)OC(F)(F)F)S(=O)(=O)N,MeCN,CC#N,24.11,Ejoc202001649-sup-00001-misc_information.pdf,-,-
802,997,CAS,1580000-57-2,COC1=CC=CC=C1N2CCN(CC2)CCCCNC(=O)C3=CC=C(C=C3)C4=CSC=N4,MeCN,CC#N,24.03,Ejoc202001649-sup-00001-misc_information.pdf,-,-
803,998,CAS,1535-92-8,C1(=C(C(=C(C(=C1F)F)F)F)F)NC2=C(C(=C(C(=C2F)F)F)F)F,MeCN,CC#N,23.98,Ejoc202001649-sup-00001-misc_information.pdf,-,-
804,999,CAS,"3,5-F2-C6H3-CH2-Tf",no matches,MeCN,CC#N,23.96,Ejoc202001649-sup-00001-misc_information.pdf,-,-
805,1000,CAS,205-94-7,C1=CC=C2C3=C4C(C2=C1)C5=CC=CC=C5C4=CC=C3,MeCN,CC#N,23.92,Ejoc202001649-sup-00001-misc_information.pdf,-,-
806,1001,CAS,489-98-5,C1=C(C=C(C(=C1[N+](=O)[O-])N)[N+](=O)[O-])[N+](=O)[O-],MeCN,CC#N,23.87,Ejoc202001649-sup-00001-misc_information.pdf,-,-
807,1002,CAS,349-58-6,C1=C(C=C(C=C1C(F)(F)F)O)C(F)(F)F,MeCN,CC#N,23.8,Ejoc202001649-sup-00001-misc_information.pdf,-,-
808,1003,CAS,193686-70-3,C1=CC=C2C(=C1)C=C(N2)[N+](=O)[O-],MeCN,CC#N,23.64,Ejoc202001649-sup-00001-misc_information.pdf,-,-
809,1004,CAS,3002-30-0,COC(=O)C1C2=CC=CC=C2C3=CC=CC=C13,MeCN,CC#N,23.54,Ejoc202001649-sup-00001-misc_information.pdf,-,-
810,1005,CAS,64-19-7,CC(=O)O,MeCN,CC#N,23.5,Ejoc202001649-sup-00001-misc_information.pdf,-,-
811,1006,CAS,80588-40-5,no matches,MeCN,CC#N,23.22,Ejoc202001649-sup-00001-misc_information.pdf,-,-
812,1007,CAS,73622-52-3,no SMILES,MeCN,CC#N,23.19,Ejoc202001649-sup-00001-misc_information.pdf,-,-
813,1008,CAS,110-44-1,CC=CC=CC(=O)O,MeCN,CC#N,22.97,Ejoc202001649-sup-00001-misc_information.pdf,-,-
814,1009,CAS,1582-05-4,CCOC(=O)C(C1=C(C(=C(C(=C1F)F)F)F)F)C(=O)OCC,MeCN,CC#N,22.88,Ejoc202001649-sup-00001-misc_information.pdf,-,-
815,1010,CAS,88-75-5,error in recall,MeCN,CC#N,22.85,Ejoc202001649-sup-00001-misc_information.pdf,-,-
816,1011,CAS,434957-15-0,C1=C(C=C(C=C1C(F)(F)F)C(F)(F)F)CS(=O)(=O)C(F)(F)F,MeCN,CC#N,22.84,Ejoc202001649-sup-00001-misc_information.pdf,-,-
817,1012,CAS,58432-44-3,no matches,MeCN,CC#N,22.8,Ejoc202001649-sup-00001-misc_information.pdf,-,-
818,1013,CAS,302-79-4,CC1=C(C(CCC1)(C)C)C=CC(=CC=CC(=CC(=O)O)C)C,MeCN,CC#N,22.78,Ejoc202001649-sup-00001-misc_information.pdf,-,-
819,1014,CAS,4770-03-0,C1=CC=C2C(=C1)C(=CN2)[N+](=O)[O-],MeCN,CC#N,22.77,Ejoc202001649-sup-00001-misc_information.pdf,-,-
820,1015,CAS,778-36-9,C1(=C(C(=C(C(=C1F)F)S(=O)(=O)N)F)F)F,MeCN,CC#N,22.27,Ejoc202001649-sup-00001-misc_information.pdf,-,-
821,1016,CAS,52345-34-3,no matches,MeCN,CC#N,21.94,Ejoc202001649-sup-00001-misc_information.pdf,-,-
822,1017,CAS,213542-80-4,no matches,MeCN,CC#N,21.92,Ejoc202001649-sup-00001-misc_information.pdf,-,-
823,1018,CAS,65-85-0,C1=CC=C(C=C1)C(=O)O,MeCN,CC#N,21.5,Ejoc202001649-sup-00001-misc_information.pdf,-,-
824,1019,CAS,36375-81-2,CCC(=O)C1=C(C=C(C=C1)Br)N,MeCN,CC#N,21.37,Ejoc202001649-sup-00001-misc_information.pdf,36372-62-0,1-(2-amino-4-bromophenyl)propan-1-one
825,1020,CAS,1529-40-4,C1=CC=C2C(=C1)C(C3=CC=CC=C32)C#N,MeCN,CC#N,21.35,Ejoc202001649-sup-00001-misc_information.pdf,1529-40-4,9H-fluorene-9-carbonitrile
826,1021,CAS,72-48-0,C1=CC=C2C(=C1)C(=O)C3=C(C2=O)C(=C(C=C3)O)O,MeCN,CC#N,21.23,Ejoc202001649-sup-00001-misc_information.pdf,72-48-0,"1,2-dihydroxyanthracene-9,10-dione"
827,1022,CAS,42254-09-1,CCOC1=CC=C(C=C1)N2C(=O)C3=C(NC2=S)NN=C3,MeCN,CC#N,21.1,Ejoc202001649-sup-00001-misc_information.pdf,-,"5-(4-ethoxyphenyl)-6-sulfanylidene-1,7-dihydropyrazolo[3,4-d]pyrimidin-4-one"
828,1023,CAS,42238-34-6,CCOC(=O)C1=C(SC2=C1CCCC2)NC(=O)OC(C)(C)C,MeCN,CC#N,21.09,Ejoc202001649-sup-00001-misc_information.pdf,-,"ethyl 2-[(2-methylpropan-2-yl)oxycarbonylamino]-4,5,6,7-tetrahydro-1-benzothiophene-3-carboxylate"
829,1024,CAS,4-CF3-C6F4-CH2-Tf,CCCOC(=O)CC1=CC=C(C=C1)CC(C)C,MeCN,CC#N,21.02,Ejoc202001649-sup-00001-misc_information.pdf,92729-55-0,propyl 2-[4-(2-methylpropyl)phenyl]acetate
830,1025,CAS,1/2/78,C(C(F)(F)F)(C(F)(F)F)(C(F)(F)F)O,MeCN,CC#N,20.5,Ejoc202001649-sup-00001-misc_information.pdf,2378-02-1,"1,1,1,3,3,3-hexafluoro-2-(trifluoromethyl)propan-2-ol"
831,1026,CAS,80588-46-1,no matches,MeCN,CC#N,20.39,Ejoc202001649-sup-00001-misc_information.pdf,-,-
832,1027,CAS,42238-36-8,CN(C)CCNCC(=O)N1C2=CC=CC=C2SC3=CC=CC=C31,MeCN,CC#N,20.36,Ejoc202001649-sup-00001-misc_information.pdf,-,-
833,1028,CAS,118-79-6,C1=C(C=C(C(=C1Br)O)Br)Br,MeCN,CC#N,20.34,Ejoc202001649-sup-00001-misc_information.pdf,-,-
834,1029,CAS,1213-77-0,CC1=C(C(=C(C(=C1C#N)C#N)C#N)C#N)C#N,MeCN,CC#N,20.14,Ejoc202001649-sup-00001-misc_information.pdf,-,-
835,1030,CAS,64934-69-6,CC1=[N+](C(NC1(C)C)(C)C)[O-],MeCN,CC#N,20.13,Ejoc202001649-sup-00001-misc_information.pdf,-,-
836,1031,CAS,769-39-1,C1=C(C(=C(C(=C1F)F)O)F)F,MeCN,CC#N,20.1,Ejoc202001649-sup-00001-misc_information.pdf,-,-
837,1032,CAS,771-61-9,C1(=C(C(=C(C(=C1F)F)F)F)F)O,MeCN,CC#N,20.1,Ejoc202001649-sup-00001-misc_information.pdf,-,-
838,1033,CAS,64934-68-5,no matches,MeCN,CC#N,20.07,Ejoc202001649-sup-00001-misc_information.pdf,-,-
839,1034,CAS,38727-34-3,CCC1=C(C(=CC=C1)CC)N(CC(=O)OCC)C(=O)CCl,MeCN,CC#N,19.87,Ejoc202001649-sup-00001-misc_information.pdf,-,-
840,1035,CAS,5386-30-1,C12=C(C(=C(C(=C1O)F)F)F)C(=C(C(=C2F)F)F)F,MeCN,CC#N,19.7,Ejoc202001649-sup-00001-misc_information.pdf,-,-
841,1036,CAS,133213-11-3,NC1=C(C=C(C=C1[S](F)(=O)=O)[S](F)(=O)=O)[S](F)(=O)=O,MeCN,CC#N,19.66,Ejoc202001649-sup-00001-misc_information.pdf,-,-
842,1037,CAS,62325-38-6,no matches,MeCN,CC#N,19.32,Ejoc202001649-sup-00001-misc_information.pdf,-,-
843,1038,CAS,1269510-74-8,no SMILES,MeCN,CC#N,19.2,Ejoc202001649-sup-00001-misc_information.pdf,-,-
844,1039,CAS,63264-80-2,C1(C2=C(C3=C1C(=C(C(=C3F)F)F)F)C(=C(C(=C2F)F)F)F)C4=C(C(=C(C(=C4F)F)F)F)F,MeCN,CC#N,18.87,Ejoc202001649-sup-00001-misc_information.pdf,-,-
845,1040,CAS,727-49-1,C12=C(C(=C(C(=C1F)O)F)F)C(=C(C(=C2F)F)F)F,MeCN,CC#N,18.5,Ejoc202001649-sup-00001-misc_information.pdf,-,-
846,1041,CAS,2249843-76-1,CCN(CC)C(=O)N(C)N=O,MeCN,CC#N,18.45,Ejoc202001649-sup-00001-misc_information.pdf,-,-
847,1042,CAS,92916-62-6,B1(OC(C(O1)(C)C)(C)C)C2=CC(=CC(=C2)Cl)OC,MeCN,CC#N,18.25,Ejoc202001649-sup-00001-misc_information.pdf,-,-
848,1043,CAS,42238-35-7,C1=C(C=C(C=C1N)Br)C(=O)O,MeCN,CC#N,18.13,Ejoc202001649-sup-00001-misc_information.pdf,-,-
849,1044,CAS,2894-87-3,C1(=C(C(=C(C(=C1F)F)O)F)F)C2=C(C(=C(C(=C2F)F)F)F)F,MeCN,CC#N,18.1,Ejoc202001649-sup-00001-misc_information.pdf,-,-
850,1045,CAS,2408902-96-3,no matches,MeCN,CC#N,18.1,Ejoc202001649-sup-00001-misc_information.pdf,-,-
851,1046,CAS,55852-22-7,CC1(CC(C(=O)O1)N2C3=CC=CC=C3C=C2CC(=O)N)C,MeCN,CC#N,18.07,Ejoc202001649-sup-00001-misc_information.pdf,-,-
852,1047,CAS,87-86-5,C1(=C(C(=C(C(=C1Cl)Cl)Cl)Cl)Cl)O,MeCN,CC#N,18.0,Ejoc202001649-sup-00001-misc_information.pdf,-,-
853,1048,CAS,608-71-9,C1(=C(C(=C(C(=C1Br)Br)Br)Br)Br)O,MeCN,CC#N,17.81,Ejoc202001649-sup-00001-misc_information.pdf,-,-
854,1049,CAS,2340-87-6,CCOC(=O)C(C#N)C1=C(C(=C(C(=C1F)F)F)F)F,MeCN,CC#N,17.73,Ejoc202001649-sup-00001-misc_information.pdf,-,-
855,1050,CAS,33534-88-2,CC1=CC=C(C=C1)C(C#N)C#N,MeCN,CC#N,17.57,Ejoc202001649-sup-00001-misc_information.pdf,-,-
856,1051,CAS,62325-34-2,no matches,MeCN,CC#N,17.48,Ejoc202001649-sup-00001-misc_information.pdf,-,-
857,1052,CAS,55810-56-5,no SMILES,MeCN,CC#N,17.38,Ejoc202001649-sup-00001-misc_information.pdf,-,-
858,1053,CAS,35622-48-1,no SMILES,MeCN,CC#N,17.2,Ejoc202001649-sup-00001-misc_information.pdf,-,-
859,1054,name,Br4-CX-benzoic acid,,MeCN,CC#N,17.19,Ejoc202001649-sup-00001-misc_information.pdf,-,-
860,1055,CAS,534-52-1,CC1=CC(=CC(=C1O)[N+](=O)[O-])[N+](=O)[O-],MeCN,CC#N,16.97,Ejoc202001649-sup-00001-misc_information.pdf,-,-
861,1056,CAS,573-56-8,C1=CC(=C(C(=C1)[N+](=O)[O-])O)[N+](=O)[O-],MeCN,CC#N,16.74,Ejoc202001649-sup-00001-misc_information.pdf,-,-
862,1057,CAS,51-28-5,no SMILES,MeCN,CC#N,16.65,Ejoc202001649-sup-00001-misc_information.pdf,-,-
863,1058,CAS,2787-79-3,C1(=C(C(=C(C(=C1F)F)O)F)F)C(F)(F)F,MeCN,CC#N,16.6,Ejoc202001649-sup-00001-misc_information.pdf,-,-
864,1059,CAS,62325-51-3,C1=CC2=C(C=CC3=C2C=CC(=C3)Br)C=C1Br,MeCN,CC#N,16.39,Ejoc202001649-sup-00001-misc_information.pdf,-,-
865,1060,CAS,364-32-9,C1=C(C=C(C(=C1[N+](=O)[O-])O)[N+](=O)[O-])F,MeCN,CC#N,16.17,Ejoc202001649-sup-00001-misc_information.pdf,-,-
866,1061,CAS,58432-55-6,no matches,MeCN,CC#N,16.12,Ejoc202001649-sup-00001-misc_information.pdf,-,-
867,1062,CAS,32251-53-9,CCOC(=O)C(C#N)C1=C(C(=C(C(=C1F)F)C(F)(F)F)F)F,MeCN,CC#N,16.07,Ejoc202001649-sup-00001-misc_information.pdf,-,-
868,1063,CAS,62325-37-5,no SMILES,MeCN,CC#N,16.01,Ejoc202001649-sup-00001-misc_information.pdf,-,-
869,1064,CAS,854631-03-1,no matches,MeCN,CC#N,15.68,Ejoc202001649-sup-00001-misc_information.pdf,-,-
870,1065,CAS,2693-66-5,C1(=C(NC(=C(C1=O)F)F)F)F,MeCN,CC#N,15.39,Ejoc202001649-sup-00001-misc_information.pdf,-,-
871,1066,CAS,55810-61-2,no matches,MeCN,CC#N,14.89,Ejoc202001649-sup-00001-misc_information.pdf,-,-
872,1067,CAS,99726-60-0,C1=CC(=CC(=C1)C(F)(F)F)C(C#N)C#N,MeCN,CC#N,14.7,Ejoc202001649-sup-00001-misc_information.pdf,-,-