,Unnamed: 0,name,solute,solute SMILES,solvent,solvent SMILES,pka,ref,computed CAS,computed IUPAC
483,483,name,Bromothymol blue,CC1=C(C=C(C(=C1Br)O)C(C)C)C2(C3=CC=CC=C3S(=O)(=O)O2)C4=C(C(=C(C(=C4)C(C)C)O)Br)C,MeCN,CC#N,11.7,a_unified_view_to_bronsted_acidity_scales.pdf,76-59-5,"2-bromo-4-[3-(3-bromo-4-hydroxy-2-methyl-5-propan-2-ylphenyl)-1,1-dioxo-2,1λ6-benzoxathiol-3-yl]-3-methyl-6-propan-2-ylphenol"
484,484,name,Bromocresol green,CC1=C(C(=C(C=C1C2(C3=CC=CC=C3S(=O)(=O)O2)C4=CC(=C(C(=C4C)Br)O)Br)Br)O)Br,MeCN,CC#N,11.0,a_unified_view_to_bronsted_acidity_scales.pdf,76-60-8,"2,6-dibromo-4-[3-(3,5-dibromo-4-hydroxy-2-methylphenyl)-1,1-dioxo-2,1λ6-benzoxathiol-3-yl]-3-methylphenol"