,checking,solute,solute SMILES,computed CAS,computed IUPAC,solvent,solvent SMILES,pka,ref
1590,T,4-NO2-C6H4SO2NHSO2C6H4-4-Cl,C1=CC(=CC=C1[N+](=O)[O-])S(=O)(=O)NS(=O)(=O)C2=CC=C(C=C2)Cl,95468-16-9,N-(4-chlorophenyl)sulfonyl-4-nitrobenzenesulfonamide,DCE,C(CCl)Cl,42.4,leito_acids
1591,T,C6(CF3)5CH(CN)2,C(#N)C(C#N)C1=C(C(=C(C(=C1C(F)(F)F)C(F)(F)F)C(F)(F)F)C(F)(F)F)C(F)(F)F,1018330-44-3,"2-[2,3,4,5,6-pentakis(trifluoromethyl)phenyl]propanedinitrile",DCE,C(CCl)Cl,42.2,leito_acids
1592,T,(4-NO2-C6H4SO2)2NH,C1=CC(=CC=C1[N+](=O)[O-])S(=O)(=O)NS(=O)(=O)C2=CC=C(C=C2)[N+](=O)[O-],7/6/09,4-nitro-N-(4-nitrophenyl)sulfonylbenzenesulfonamide,DCE,C(CCl)Cl,41.1,leito_acids
1593,T,4-Cl-3-NO2-C6H3SO2NHSO2C6H4-4-NO2,[O-][N+](=O)C1=CC=C(C=C1)[S](=O)(=O)N[S](=O)(=O)C2=CC(=C(Cl)C=C2)[N+]([O-])=O,2226486-82-2,,DCE,C(CCl)Cl,40.7,leito_acids
1594,T,4-NO2-C6H4SO2CH(CN)2,[O-][N+](=O)C1=CC=C(C=C1)[S](=O)(=O)C(C#N)C#N,1207878-53-2,2-((4-nitrophenyl)sulfonyl)malononitrile,DCE,C(CCl)Cl,39.9,leito_acids
1595,T,C6H5C(=NTf)NHTf,C1=CC=C(C=C1)C(=NS(=O)(=O)C(F)(F)F)NS(=O)(=O)C(F)(F)F,500721-91-5,"N,N'-bis(trifluoromethylsulfonyl)benzenecarboximidamide",DCE,C(CCl)Cl,33.3,leito_acids
1596,T,HBr,Br,10035-10-6,bromane,DCE,C(CCl)Cl,40.6,leito_acids
1597,T,"2,4,6-SO2F-phenol",C1=C(C=C(C(=C1S(=O)(=O)F)O)S(=O)(=O)F)S(=O)(=O)F,882492-01-5,"2-hydroxybenzene-1,3,5-trisulfonyl fluoride",DCE,C(CCl)Cl,39,leito_acids
1598,T,4-Cl-C6H4C(=NTf)NHTf,C1=CC(=CC=C1C(=NS(=O)(=O)C(F)(F)F)NS(=O)(=O)C(F)(F)F)Cl,500721-95-9,"4-chloro-N,N'-bis(trifluoromethylsulfonyl)benzenecarboximidamide",DCE,C(CCl)Cl,32.7,leito_acids
1599,T,4-Cl-C6H4SO(=NTf)NHTos,CC1=CC=C(C=C1)[S](=O)(=O)N[S](=O)(=N[S](=O)(=O)C(F)(F)F)C2=CC=C(Cl)C=C2,174788-93-3,,DCE,C(CCl)Cl,38,leito_acids
1600,T,4-NO2-C6H4C(=NTf)NHTf,C1=CC(=CC=C1C(=NS(=O)(=O)C(F)(F)F)NS(=O)(=O)C(F)(F)F)[N+](=O)[O-],500721-97-1,"4-nitro-N,N'-bis(trifluoromethylsulfonyl)benzenecarboximidamide",DCE,C(CCl)Cl,31.7,leito_acids
1601,T,"2,4,6-SO2CF3-phenol",C1=C(C=C(C(=C1S(=O)(=O)C(F)(F)F)O)S(=O)(=O)C(F)(F)F)S(=O)(=O)C(F)(F)F,71571-37-4,"2,4,6-tris(trifluoromethylsulfonyl)phenol",DCE,C(CCl)Cl,38.4,leito_acids
1602,T,(CN2)2C=C(CN)OH,C(#N)C(=C(C#N)O)C#N,27062-39-1,"2-hydroxyethene-1,1,2-tricarbonitrile",DCE,C(CCl)Cl,36.3,leito_acids
1603,T,4-NO2-C6H4SO2NHTf,C1=CC(=CC=C1[N+](=O)[O-])S(=O)(=O)NS(=O)(=O)C(F)(F)F,174788-91-1,4-nitro-N-(trifluoromethylsulfonyl)benzenesulfonamide,DCE,C(CCl)Cl,37.1,leito_acids
1604,T,4-Cl-C6H4SO(=NTf)NHSO2C6H4-4-Cl,FC(F)(F)[S](=O)(=O)N=[S](=O)(N[S](=O)(=O)C1=CC=C(Cl)C=C1)C2=CC=C(Cl)C=C2,174788-95-5,,DCE,C(CCl)Cl,37.1,leito_acids
1605,T,"2,4-(NO2)2-C6H3SO3H",C1=CC(=C(C=C1[N+](=O)[O-])[N+](=O)[O-])S(=O)(=O)O,89-02-1,"2,4-dinitrobenzenesulfonic acid",DCE,C(CCl)Cl,36,leito_acids
1606,T,"2,3,5-Tricyano-1,3-cyclopentadiene",N#CC1C=C(C#N)C(=C1)C#N,215395-09-8,"cyclopenta-2,5-diene-1,2,4-tricarbonitrile",DCE,C(CCl)Cl,38,leito_acids
1607,T,4-Cl-C6H4SO(=NTf)NHSO2C6H4-4-NO2,[O-][N+](=O)C1=CC=C(C=C1)[S](=O)(=O)N[S](=O)(=N[S](=O)(=O)C(F)(F)F)C2=CC=C(Cl)C=C2,174788-97-7,,DCE,C(CCl)Cl,35.9,leito_acids
1608,T,HI,I,10034-85-2,iodane,DCE,C(CCl)Cl,37.7,leito_acids
1609,T,(CF3)5C6CH(CN)COOEt,CCOC(=O)C(C#N)C1=C(C(=C(C(=C1C(F)(F)F)C(F)(F)F)C(F)(F)F)C(F)(F)F)C(F)(F)F,2226486-80-0,,DCE,C(CCl)Cl,47.8,leito_acids
1610,T,2-C10F7CH(CN)2,C(#N)C(C#N)C1=C(C2=C(C(=C1F)F)C(=C(C(=C2F)F)F)F)F,62325-35-3,"2-(1,3,4,5,6,7,8-heptafluoronaphthalen-2-yl)propanedinitrile",DCE,C(CCl)Cl,46.3,leito_acids
1611,T,Bromothymol blue,CC1=C(C=C(C(=C1Br)O)C(C)C)C2(C3=CC=CC=C3S(=O)(=O)O2)C4=C(C(=C(C(=C4)C(C)C)O)Br)C,76-59-5,"2-bromo-4-[3-(3-bromo-4-hydroxy-2-methyl-5-propan-2-ylphenyl)-1,1-dioxo-2,16-benzoxathiol-3-yl]-3-methyl-6-propan-2-ylphenol",DCE,C(CCl)Cl,46.1,leito_acids
1612,T,Bromocresol green,CC1=C(C(=C(C=C1C2(C3=CC=CC=C3S(=O)(=O)O2)C4=CC(=C(C(=C4C)Br)O)Br)Br)O)Br,76-60-8,"2,6-dibromo-4-[3-(3,5-dibromo-4-hydroxy-2-methylphenyl)-1,1-dioxo-2,16-benzoxathiol-3-yl]-3-methylphenol",DCE,C(CCl)Cl,45.2,leito_acids
1613,T,Styphnic acid,C1=C(C(=C(C(=C1[N+](=O)[O-])O)[N+](=O)[O-])O)[N+](=O)[O-],82-71-3,"2,4,6-trinitrobenzene-1,3-diol",DCE,C(CCl)Cl,44.1,leito_acids
1614,T,HNO3,[N+](=O)(O)[O-],7697-37-2,nitric acid,DCE,C(CCl)Cl,43.6,leito_acids
1615,T,H2SO4,OS(=O)(=O)O,7664-93-9,sulfuric acid,DCE,C(CCl)Cl,42.8,leito_acids
1616,T,(3-NO2-4-Cl-C6H3SO2)2NH,[O-][N+](=O)C1=C(Cl)C=CC(=C1)[S](=O)(=O)N[S](=O)(=O)C2=CC(=C(Cl)C=C2)[N+]([O-])=O,64646-01-1,4-chloro-N-((4-chloro-3-nitrophenyl)sulfonyl)-3-nitrobenzenesulfonamide,DCE,C(CCl)Cl,40.4,leito_acids
1617,T,CH(CN)3,C(#N)C(C#N)C#N,454-50-2,methanetricarbonitrile,DCE,C(CCl)Cl,38.6,leito_acids
1618,T,NH2-TCNP,C(#N)C(C#N)C(=C(C#N)C#N)N,98555-43-2,"2-aminoprop-1-ene-1,1,3,3-tetracarbonitrile",DCE,C(CCl)Cl,38.2,leito_acids
1619,T,Pentacyanophenol,C(#N)C1=C(C(=C(C(=C1C#N)C#N)O)C#N)C#N,42448-55-5,"6-hydroxybenzene-1,2,3,4,5-pentacarbonitrile",DCE,C(CCl)Cl,37.5,leito_acids
1620,T,Me-TCNP,CC(=C(C#N)C#N)C(C#N)C#N,24943-63-3,"2-methylprop-1-ene-1,1,3,3-tetracarbonitrile",DCE,C(CCl)Cl,36.4,leito_acids
1621,T,"3,4-(MeO)2-C6H3-TCNP",COC1=C(OC)C=C(C=C1)C(C(C#N)C#N)=C(C#N)C#N,1261286-75-2,,DCE,C(CCl)Cl,36.1,leito_acids
1622,T,4-MeO-C6H4-TCNP,COC1=CC=C(C=C1)C(C(C#N)C#N)=C(C#N)C#N,1261286-76-3,,DCE,C(CCl)Cl,36.1,leito_acids
1623,T,C6F5CH(Tf)2,C1(=C(C(=C(C(=C1F)F)F)F)F)C(S(=O)(=O)C(F)(F)F)S(=O)(=O)C(F)(F)F,405074-81-9,"1-[bis(trifluoromethylsulfonyl)methyl]-2,3,4,5,6-pentafluorobenzene",DCE,C(CCl)Cl,35.9,leito_acids
1624,T,HB(CN)(CF3)3,[H+].FC(F)(F)[B-](C#N)(C(F)(F)F)C(F)(F)F,863678-02-8,,DCE,C(CCl)Cl,35.7,leito_acids
1625,T,Ph-TCNP,C1=CC=C(C=C1)C(=C(C#N)C#N)C(C#N)C#N,96463-47-7,"2-phenylprop-1-ene-1,1,3,3-tetracarbonitrile",DCE,C(CCl)Cl,35.5,leito_acids
1626,T,HBF4,[H+].[B-](F)(F)(F)F,16872-11-0,hydron;tetrafluoroborate,DCE,C(CCl)Cl,35,leito_acids
1627,T,FSO2OH,OS(=O)(=O)F,7789-21-1,sulfurofluoridic acid,DCE,C(CCl)Cl,34.7,leito_acids
1628,T,3-CF3-C6H4-TCNP,FC(F)(F)C1=CC(=CC=C1)C(C(C#N)C#N)=C(C#N)C#N,2226486-85-5,,DCE,C(CCl)Cl,34.3,leito_acids
1629,T,H-TCNP,C(=C(C#N)C#N)C(C#N)C#N,32019-26-4,"prop-1-ene-1,1,3,3-tetracarbonitrile",DCE,C(CCl)Cl,34.3,leito_acids
1630,T,[C6H5SO(=NTf)]2NH,C1=CC=C(C=C1)S(=NS(=O)(=O)C(F)(F)F)(=O)NS(=NS(=O)(=O)C(F)(F)F)(=O)C2=CC=CC=C2,771460-54-9,"1,1,1-trifluoro-N-[oxo-phenyl-[[S-phenyl-N-(trifluoromethylsulfonyl)sulfonimidoyl]amino]-6-sulfanylidene]methanesulfonamide",DCE,C(CCl)Cl,33.6,leito_acids
1631,T,[(C2F5)2PO]2NH,C(C(F)(F)P(=O)(C(C(F)(F)F)(F)F)NP(=O)(C(C(F)(F)F)(F)F)C(C(F)(F)F)(F)F)(F)(F)F,916079-45-3,"1-[[bis(1,1,2,2,2-pentafluoroethyl)phosphorylamino]-(1,1,2,2,2-pentafluoroethyl)phosphoryl]-1,1,2,2,2-pentafluoroethane",DCE,C(CCl)Cl,33.5,leito_acids
1632,T,"2,4,6-(NO2)3-C6H2SO2OH",C1=C(C=C(C(=C1[N+](=O)[O-])S(=O)(=O)O)[N+](=O)[O-])[N+](=O)[O-],2508-19-2,"2,4,6-trinitrobenzenesulfonic acid",DCE,C(CCl)Cl,33.6,leito_acids
1633,T,[C(CN)2=C(CN)]2CH2,N#CC(CC(C#N)=C(C#N)C#N)=C(C#N)C#N,1261286-78-5,,DCE,C(CCl)Cl,33.5,leito_acids
1634,T,triflic acid,C(F)(F)(F)S(=O)(=O)O,1493-13-6,trifluoromethanesulfonic acid,DCE,C(CCl)Cl,33.7,leito_acids
1635,T,TfCH(CN)2,C(#N)C(C#N)S(=O)(=O)C(F)(F)F,278796-64-8,2-(trifluoromethylsulfonyl)propanedinitrile,DCE,C(CCl)Cl,33.5,leito_acids
1636,T,Br-TCNP,C(#N)C(C#N)C(=C(C#N)C#N)Br,100125-09-5,"2-bromoprop-1-ene-1,1,3,3-tetracarbonitrile",DCE,C(CCl)Cl,33.2,leito_acids
1637,T,[C(CN)2=C(CN)]2NH,C(#N)C(=C(C#N)NC(=C(C#N)C#N)C#N)C#N,2284-24-4,"2-(1,2,2-tricyanoethenylamino)ethene-1,1,2-tricarbonitrile",DCE,C(CCl)Cl,33,leito_acids
1638,T,"3,5-(CF3)5-C6H3-TCNP",FC(F)(F)C1=CC(=CC(=C1)C(C(C#N)C#N)=C(C#N)C#N)C(F)(F)F,1261286-79-6,,DCE,C(CCl)Cl,33,leito_acids
1639,T,Tf2NH,C(F)(F)(F)S(=O)(=O)NS(=O)(=O)C(F)(F)F,82113-65-3,"1,1,1-trifluoro-N-(trifluoromethylsulfonyl)methanesulfonamide",DCE,C(CCl)Cl,33,leito_acids
1640,T,Cl-TCNP,C(#N)C(C#N)C(=C(C#N)C#N)Cl,1261286-80-9,"2-chloroprop-1-ene-1,1,3,3-tetracarbonitrile",DCE,C(CCl)Cl,32.9,leito_acids
1641,T,(C3F7SO2)2NH,C(C(F)(F)F)(C(F)(F)S(=O)(=O)NS(=O)(=O)C(C(C(F)(F)F)(F)F)(F)F)(F)F,152894-12-7,"1,1,2,2,3,3,3-heptafluoro-N-(1,1,2,2,3,3,3-heptafluoropropylsulfonyl)propane-1-sulfonamide",DCE,C(CCl)Cl,32.7,leito_acids
1642,T,(C4F9SO2)2NH,C(C(C(F)(F)S(=O)(=O)NS(=O)(=O)C(C(C(C(F)(F)F)(F)F)(F)F)(F)F)(F)F)(C(F)(F)F)(F)F,39847-39-7,"1,1,2,2,3,3,4,4,4-nonafluoro-N-(1,1,2,2,3,3,4,4,4-nonafluorobutylsulfonyl)butane-1-sulfonamide",DCE,C(CCl)Cl,32.6,leito_acids
1643,T,CN-CH2-TCNP,C(C#N)C(=C(C#N)C#N)C(C#N)C#N,2638-14-4,"2-(cyanomethyl)prop-1-ene-1,1,3,3-tetracarbonitrile",DCE,C(CCl)Cl,32.6,leito_acids
1644,T,(C2F5SO2)2NH,C(C(F)(F)S(=O)(=O)NS(=O)(=O)C(C(F)(F)F)(F)F)(F)(F)F,152894-10-5,"1,1,2,2,2-pentafluoro-N-(1,1,2,2,2-pentafluoroethylsulfonyl)ethanesulfonamide",DCE,C(CCl)Cl,32.6,leito_acids
1645,T,CF3-TCNP,FC(F)(F)C(C(C#N)C#N)=C(C#N)C#N,1261286-81-0,,DCE,C(CCl)Cl,32.2,leito_acids
1646,T,HClO4,OCl(=O)(=O)=O,7601-90-3,perchloric acid,DCE,C(CCl)Cl,32.2,leito_acids
1647,T,CF2(CF2SO2)2NH,C1(C(S(=O)(=O)NS(=O)(=O)C1(F)F)(F)F)(F)F,84246-29-7,"4,4,5,5,6,6-hexafluoro-1,3,2-dithiazinane 1,1,3,3-tetraoxide",DCE,C(CCl)Cl,31.9,leito_acids
1648,T,HB(CN)4,[H+].N#C[B-](C#N)(C#N)C#N,623575-99-5,,DCE,C(CCl)Cl,31.7,leito_acids
1649,T,(FSO2)3CH,C(S(=O)(=O)F)(S(=O)(=O)F)S(=O)(=O)F,75533-68-5,methanetrisulfonyl fluoride,DCE,C(CCl)Cl,31.4,leito_acids
1650,T,Tf2CH(CN),FC(F)(F)[S](=O)(=O)C(C#N)[S](=O)(=O)C(F)(F)F,174191-48-1,"2,2-bis((trifluoromethyl)sulfonyl)acetonitrile",DCE,C(CCl)Cl,30,leito_acids
1651,T,"2,3,4,5-tetracyanocyclopentadiene",C1=C(C(=C(C1C#N)C#N)C#N)C#N,77569-14-3,"cyclopenta-2,4-diene-1,2,3,4-tetracarbonitrile",DCE,C(CCl)Cl,29.9,leito_acids
1652,T,CN-TCNP,C(#N)C(C#N)C(=C(C#N)C#N)C#N,45078-17-9,"prop-1-ene-1,1,2,3,3-pentacarbonitrile",DCE,C(CCl)Cl,29.7,leito_acids