,solute,solute SMILES,computed CAS,computed IUPAC,solvent,solvent SMILES,pka,ref
1127,882492-01-5,OC1=C(C=C(C=C1[S](F)(=O)=O)[S](F)(=O)=O)[S](F)(=O)=O,882492-01-5,"2-hydroxybenzene-1,3,5-trisulfonyl fluoride",DCE,C(CCl)Cl,39,Ejoc202001649-sup-00001-misc_information.pdf
120,HClO4,OCl(=O)(=O)=O,7601-90-3,perchloric acid,MeCN,CC#N,1.57,MeCN_Acids_COSMO-RS_2008_Table.pdf
234,HClO4,OCl(=O)(=O)=O,7601-90-3,perchloric acid,MeCN,CC#N,1.83,pKa_values_of_acids_and_bases_in_MeCN_DCE_DMSO_H2O_THF_C7_DME.pdf
255,HClO4,OCl(=O)(=O)=O,7601-90-3,perchloric acid,DCE,C(CCl)Cl,32.2,pKa_values_of_acids_and_bases_in_MeCN_DCE_DMSO_H2O_THF_C7_DME.pdf
266,HClO4,OCl(=O)(=O)=O,7601-90-3,perchloric acid,DMSO,CS(=O)C,-14.9,pKa_values_of_acids_and_bases_in_MeCN_DCE_DMSO_H2O_THF_C7_DME.pdf
282,HClO4,OCl(=O)(=O)=O,7601-90-3,perchloric acid,H2O,O,-15.2,pKa_values_of_acids_and_bases_in_MeCN_DCE_DMSO_H2O_THF_C7_DME.pdf
292,HClO4,OCl(=O)(=O)=O,7601-90-3,perchloric acid,THF,C1CCOC1,7.57,pKa_values_of_acids_and_bases_in_MeCN_DCE_DMSO_H2O_THF_C7_DME.pdf
1646,HClO4,OCl(=O)(=O)=O,7601-90-3,perchloric acid,DCE,C(CCl)Cl,32.2,leito_acids
121,Fluorosulfuricacid,OS(=O)(=O)F,7789-21-1,sulfurofluoridic acid,MeCN,CC#N,3.38,MeCN_Acids_COSMO-RS_2008_Table.pdf
1627,FSO2OH,OS(=O)(=O)F,7789-21-1,sulfurofluoridic acid,DCE,C(CCl)Cl,34.7,leito_acids
219,sulfuric acid,OS(=O)(=O)O,7664-93-9,sulfuric acid,MeCN,CC#N,7.2,MeCN_Acids_COSMO-RS_2008_Table.pdf
703,H2SO4,OS(=O)(=O)O,7664-93-9,sulfuric acid,MeCN,CC#N,7.6,pKa_values_of_acids_in_acetonitrile.pdf
932,7664-93-9,OS(=O)(=O)O,7664-93-9,sulfuric acid,MeCN,CC#N,7.6,Ejoc202001649-sup-00001-misc_information.pdf
1123,7664-93-9,OS(=O)(=O)O,7664-93-9,sulfuric acid,DCE,C(CCl)Cl,42.8,Ejoc202001649-sup-00001-misc_information.pdf
1615,H2SO4,OS(=O)(=O)O,7664-93-9,sulfuric acid,DCE,C(CCl)Cl,42.8,leito_acids