,solute,solute SMILES,computed CAS,computed IUPAC,solvent,solvent SMILES,pka,ref
987,444-30-4,C1=CC=C(C(=C1)C(F)(F)F)O,444-30-4,2-(trifluoromethyl)phenol,H2O,O,8.42,Ejoc202001649-sup-00001-misc_information.pdf
1042,444-30-4,C1=CC=C(C(=C1)C(F)(F)F)O,444-30-4,2-(trifluoromethyl)phenol,DMSO,CS(=O)C,14.4,Ejoc202001649-sup-00001-misc_information.pdf
1432,2-CF3-phenol,C1=CC=C(C(=C1)C(F)(F)F)O,444-30-4,2-(trifluoromethyl)phenol,MeCN,CC#N,24.88,leito_acids
113,"2,2-Diphenic acid",C1=CC=C(C(=C1)C2=CC=CC=C2C(=O)O)C(=O)O,482-05-3,2-(2-carboxyphenyl)benzoic acid,MeCN,CC#N,15.7,MeCN_Acids_COSMO-RS_2008_Table.pdf
188,2-Bromophenol,C1=CC=C(C(=C1)O)Br,95-56-7,2-bromophenol,MeCN,CC#N,23.92,MeCN_Acids_COSMO-RS_2008_Table.pdf
123,o-Mercaptophenol,C1=CC=C(C(=C1)O)S,1121-24-0,2-sulfanylphenol,MeCN,CC#N,19.34,MeCN_Acids_COSMO-RS_2008_Table.pdf
1179,603-34-9,C1=CC=C(C=C1)[NH+](C2=CC=CC=C2)C3=CC=CC=C3,-,triphenylazanium,H2O,O,-3.91,Bases_pKa_values_MeCN_DMSO_THF_Water.pdf
1311,603-34-9,C1=CC=C(C=C1)[NH+](C2=CC=CC=C2)C3=CC=CC=C3,-,triphenylazanium,MeCN,CC#N,1.28,Bases_pKa_values_MeCN_DMSO_THF_Water.pdf
1172,122-39-4,C1=CC=C(C=C1)[NH2+]C2=CC=CC=C2,61236-17-7,diphenylazanium,H2O,O,0.79,Bases_pKa_values_MeCN_DMSO_THF_Water.pdf
1243,122-39-4,C1=CC=C(C=C1)[NH2+]C2=CC=CC=C2,61236-17-7,diphenylazanium,DMSO,CS(=O)C,-1.1,Bases_pKa_values_MeCN_DMSO_THF_Water.pdf
1304,122-39-4,C1=CC=C(C=C1)[NH2+]C2=CC=CC=C2,61236-17-7,diphenylazanium,MeCN,CC#N,5.98,Bases_pKa_values_MeCN_DMSO_THF_Water.pdf
1373,122-39-4,C1=CC=C(C=C1)[NH2+]C2=CC=CC=C2,61236-17-7,diphenylazanium,THF,C1CCOC1,0.6,Bases_pKa_values_MeCN_DMSO_THF_Water.pdf
238,Aniline-H+,C1=CC=C(C=C1)[NH3+],65756-50-5,phenylazanium,MeCN,CC#N,10.62,pKa_values_of_acids_and_bases_in_MeCN_DCE_DMSO_H2O_THF_C7_DME.pdf
270,Aniline-H+,C1=CC=C(C=C1)[NH3+],65756-50-5,phenylazanium,DMSO,CS(=O)C,3.59,pKa_values_of_acids_and_bases_in_MeCN_DCE_DMSO_H2O_THF_C7_DME.pdf
286,Aniline-H+,C1=CC=C(C=C1)[NH3+],65756-50-5,phenylazanium,H2O,O,4.6,pKa_values_of_acids_and_bases_in_MeCN_DCE_DMSO_H2O_THF_C7_DME.pdf
296,Aniline-H+,C1=CC=C(C=C1)[NH3+],65756-50-5,phenylazanium,THF,C1CCOC1,5.2,pKa_values_of_acids_and_bases_in_MeCN_DCE_DMSO_H2O_THF_C7_DME.pdf
340,Aniline,C1=CC=C(C=C1)[NH3+],65756-50-5,phenylazanium,MeCN,CC#N,10.62,pKa_values_of_nitrogen_heterocycles.pdf
1165,62-53-3,C1=CC=C(C=C1)[NH3+],65756-50-5,phenylazanium,H2O,O,4.62,Bases_pKa_values_MeCN_DMSO_THF_Water.pdf
1237,62-53-3,C1=CC=C(C=C1)[NH3+],65756-50-5,phenylazanium,DMSO,CS(=O)C,3.6,Bases_pKa_values_MeCN_DMSO_THF_Water.pdf
1298,62-53-3,C1=CC=C(C=C1)[NH3+],65756-50-5,phenylazanium,MeCN,CC#N,10.64,Bases_pKa_values_MeCN_DMSO_THF_Water.pdf
1369,62-53-3,C1=CC=C(C=C1)[NH3+],65756-50-5,phenylazanium,THF,C1CCOC1,5.2,Bases_pKa_values_MeCN_DMSO_THF_Water.pdf
1625,Ph-TCNP,C1=CC=C(C=C1)C(=C(C#N)C#N)C(C#N)C#N,96463-47-7,"2-phenylprop-1-ene-1,1,3,3-tetracarbonitrile",DCE,C(CCl)Cl,35.5,leito_acids
445,C6H5C(=NTf)NHTf,C1=CC=C(C=C1)C(=NS(=O)(=O)C(F)(F)F)NS(=O)(=O)C(F)(F)F,500721-91-5,"N,N'-bis(trifluoromethylsulfonyl)benzenecarboximidamide",MeCN,CC#N,5.71,DCE_2011_pKa_Table_MeCN.pdf
725,C6H5-C(=NTf)-NH-Tf,C1=CC=C(C=C1)C(=NS(=O)(=O)C(F)(F)F)NS(=O)(=O)C(F)(F)F,500721-91-5,"N,N'-bis(trifluoromethylsulfonyl)benzenecarboximidamide",MeCN,CC#N,5.68,pKa_values_of_acids_in_acetonitrile.pdf
1545,C6H5C(=NTf)NHTf,C1=CC=C(C=C1)C(=NS(=O)(=O)C(F)(F)F)NS(=O)(=O)C(F)(F)F,500721-91-5,"N,N'-bis(trifluoromethylsulfonyl)benzenecarboximidamide",MeCN,CC#N,5.71,leito_acids
1595,C6H5C(=NTf)NHTf,C1=CC=C(C=C1)C(=NS(=O)(=O)C(F)(F)F)NS(=O)(=O)C(F)(F)F,500721-91-5,"N,N'-bis(trifluoromethylsulfonyl)benzenecarboximidamide",DCE,C(CCl)Cl,33.3,leito_acids
1499,C6H5C(=O)NHTf,C1=CC=C(C=C1)C(=O)NS(=O)(=O)C(F)(F)F,39062-91-4,N-(trifluoromethylsulfonyl)benzamide,MeCN,CC#N,11.06,leito_acids
55,Benzoic acid,C1=CC=C(C=C1)C(=O)O,65-85-0,benzoic acid,MeCN,CC#N,21.51,MeCN_Acids_COSMO-RS_2008_Table.pdf
237,Benzoic acid,C1=CC=C(C=C1)C(=O)O,65-85-0,benzoic acid,MeCN,CC#N,21.51,pKa_values_of_acids_and_bases_in_MeCN_DCE_DMSO_H2O_THF_C7_DME.pdf
269,Benzoic acid,C1=CC=C(C=C1)C(=O)O,65-85-0,benzoic acid,DMSO,CS(=O)C,11.1,pKa_values_of_acids_and_bases_in_MeCN_DCE_DMSO_H2O_THF_C7_DME.pdf
285,Benzoic acid,C1=CC=C(C=C1)C(=O)O,65-85-0,benzoic acid,H2O,O,4.25,pKa_values_of_acids_and_bases_in_MeCN_DCE_DMSO_H2O_THF_C7_DME.pdf
295,Benzoic acid,C1=CC=C(C=C1)C(=O)O,65-85-0,benzoic acid,THF,C1CCOC1,25.11,pKa_values_of_acids_and_bases_in_MeCN_DCE_DMSO_H2O_THF_C7_DME.pdf
590,Benzoic acid,C1=CC=C(C=C1)C(=O)O,65-85-0,benzoic acid,MeCN,CC#N,21.5,pKa_values_of_acids_in_acetonitrile.pdf
820,65-85-0,C1=CC=C(C=C1)C(=O)O,65-85-0,benzoic acid,MeCN,CC#N,21.5,Ejoc202001649-sup-00001-misc_information.pdf
997,65-85-0,C1=CC=C(C=C1)C(=O)O,65-85-0,benzoic acid,H2O,O,4.2,Ejoc202001649-sup-00001-misc_information.pdf
1057,65-85-0,C1=CC=C(C=C1)C(=O)O,65-85-0,benzoic acid,DMSO,CS(=O)C,11,Ejoc202001649-sup-00001-misc_information.pdf
1148,65-85-0,C1=CC=C(C=C1)C(=O)O,65-85-0,benzoic acid,DMF,CN(C)C=O,12.3,Ejoc202001649-sup-00001-misc_information.pdf
1446,Benzoic acid,C1=CC=C(C=C1)C(=O)O,65-85-0,benzoic acid,MeCN,CC#N,21.51,leito_acids
228,(C6H5)(C6F5)CHCN,C1=CC=C(C=C1)C(C#N)C2=C(C(=C(C(=C2F)F)F)F)F,42238-33-5,"2-(2,3,4,5,6-pentafluorophenyl)-2-phenylacetonitrile",MeCN,CC#N,26.14,pKa_values_of_acids_and_bases_in_MeCN_DCE_DMSO_H2O_THF_C7_DME.pdf
260,(C6H5)(C6F5)CHCN,C1=CC=C(C=C1)C(C#N)C2=C(C(=C(C(=C2F)F)F)F)F,42238-33-5,"2-(2,3,4,5,6-pentafluorophenyl)-2-phenylacetonitrile",DMSO,CS(=O)C,12.8,pKa_values_of_acids_and_bases_in_MeCN_DCE_DMSO_H2O_THF_C7_DME.pdf
311,(C6H5)(C6F5)CHCN,C1=CC=C(C=C1)C(C#N)C2=C(C(=C(C(=C2F)F)F)F)F,42238-33-5,"2-(2,3,4,5,6-pentafluorophenyl)-2-phenylacetonitrile",DME,COCCOC.COCCOC,11.8,pKa_values_of_acids_and_bases_in_MeCN_DCE_DMSO_H2O_THF_C7_DME.pdf
1428,(C6H5)(C6F5)CHCN,C1=CC=C(C=C1)C(C#N)C2=C(C(=C(C(=C2F)F)F)F)F,42238-33-5,"2-(2,3,4,5,6-pentafluorophenyl)-2-phenylacetonitrile",MeCN,CC#N,26.14,leito_acids
29,40906-82-9,C1=CC=C(C=C1)C(S(=O)(=O)C(F)(F)F)S(=O)(=O)C(F)(F)F,40906-82-9,bis(trifluoromethylsulfonyl)methylbenzene,MeCN,CC#N,7.85,MeCN_Acids_COSMO-RS_2008_Table.pdf
430,C6H5CH(Tf)2,C1=CC=C(C=C1)C(S(=O)(=O)C(F)(F)F)S(=O)(=O)C(F)(F)F,40906-82-9,bis(trifluoromethylsulfonyl)methylbenzene,MeCN,CC#N,7.85,DCE_2011_pKa_Table_MeCN.pdf
702,C6H5-CHTf2,C1=CC=C(C=C1)C(S(=O)(=O)C(F)(F)F)S(=O)(=O)C(F)(F)F,40906-82-9,bis(trifluoromethylsulfonyl)methylbenzene,MeCN,CC#N,7.73,pKa_values_of_acids_in_acetonitrile.pdf
931,40906-82-9,C1=CC=C(C=C1)C(S(=O)(=O)C(F)(F)F)S(=O)(=O)C(F)(F)F,40906-82-9,bis(trifluoromethylsulfonyl)methylbenzene,MeCN,CC#N,7.73,Ejoc202001649-sup-00001-misc_information.pdf
1090,40906-82-9,C1=CC=C(C=C1)C(S(=O)(=O)C(F)(F)F)S(=O)(=O)C(F)(F)F,40906-82-9,bis(trifluoromethylsulfonyl)methylbenzene,DMSO,CS(=O)C,2,Ejoc202001649-sup-00001-misc_information.pdf
1522,C6H5CHTf2,C1=CC=C(C=C1)C(S(=O)(=O)C(F)(F)F)S(=O)(=O)C(F)(F)F,40906-82-9,bis(trifluoromethylsulfonyl)methylbenzene,MeCN,CC#N,7.85,leito_acids
1178,620-40-6,C1=CC=C(C=C1)C[NH+](CC2=CC=CC=C2)CC3=CC=CC=C3,-,tribenzylazanium,H2O,O,7.44,Bases_pKa_values_MeCN_DMSO_THF_Water.pdf
1249,620-40-6,C1=CC=C(C=C1)C[NH+](CC2=CC=CC=C2)CC3=CC=CC=C3,-,tribenzylazanium,DMSO,CS(=O)C,4.1,Bases_pKa_values_MeCN_DMSO_THF_Water.pdf
1310,620-40-6,C1=CC=C(C=C1)C[NH+](CC2=CC=CC=C2)CC3=CC=CC=C3,-,tribenzylazanium,MeCN,CC#N,12.9,Bases_pKa_values_MeCN_DMSO_THF_Water.pdf
1379,620-40-6,C1=CC=C(C=C1)C[NH+](CC2=CC=CC=C2)CC3=CC=CC=C3,-,tribenzylazanium,THF,C1CCOC1,6.5,Bases_pKa_values_MeCN_DMSO_THF_Water.pdf
1171,103-49-1,C1=CC=C(C=C1)C[NH2+]CC2=CC=CC=C2,-,dibenzylazanium,H2O,O,8.52,Bases_pKa_values_MeCN_DMSO_THF_Water.pdf
1164,100-46-9,C1=CC=C(C=C1)C[NH3+],-,benzylazanium,H2O,O,9.34,Bases_pKa_values_MeCN_DMSO_THF_Water.pdf
1236,100-46-9,C1=CC=C(C=C1)C[NH3+],-,benzylazanium,DMSO,CS(=O)C,10.16,Bases_pKa_values_MeCN_DMSO_THF_Water.pdf
1297,100-46-9,C1=CC=C(C=C1)C[NH3+],-,benzylazanium,MeCN,CC#N,16.92,Bases_pKa_values_MeCN_DMSO_THF_Water.pdf
1368,100-46-9,C1=CC=C(C=C1)C[NH3+],-,benzylazanium,THF,C1CCOC1,12.1,Bases_pKa_values_MeCN_DMSO_THF_Water.pdf
1491,Substance6,C1=CC=C(C=C1)C2=CC3=CC=CC=C3C4=C2OP(=O)(OC5=C4C6=CC=CC=C6C=C5C7=CC=CC=C7)O,695162-86-8,"13-hydroxy-10,16-diphenyl-12,14-dioxa-135-phosphapentacyclo[13.8.0.02,11.03,8.018,23]tricosa-1(15),2(11),3,5,7,9,16,18,20,22-decaene 13-oxide",MeCN,CC#N,12.7,leito_acids
532,C6H5-CH2-Tf,C1=CC=C(C=C1)CS(=O)(=O)C(F)(F)F,-,trifluoromethylsulfonylmethylbenzene,MeCN,CC#N,27.19,pKa_values_of_acids_in_acetonitrile.pdf
761,C6H5-CH2-Tf,C1=CC=C(C=C1)CS(=O)(=O)C(F)(F)F,-,trifluoromethylsulfonylmethylbenzene,MeCN,CC#N,27.19,Ejoc202001649-sup-00001-misc_information.pdf
1028,C6H5-CH2-Tf,C1=CC=C(C=C1)CS(=O)(=O)C(F)(F)F,-,trifluoromethylsulfonylmethylbenzene,DMSO,CS(=O)C,14.55,Ejoc202001649-sup-00001-misc_information.pdf
1222,102-06-7,C1=CC=C(C=C1)NC(=[NH+]C2=CC=CC=C2)N,-,[amino(anilino)methylidene]-phenylazanium,H2O,O,10.02,Bases_pKa_values_MeCN_DMSO_THF_Water.pdf
1283,102-06-7,C1=CC=C(C=C1)NC(=[NH+]C2=CC=CC=C2)N,-,[amino(anilino)methylidene]-phenylazanium,DMSO,CS(=O)C,8.6,Bases_pKa_values_MeCN_DMSO_THF_Water.pdf
1355,102-06-7,C1=CC=C(C=C1)NC(=[NH+]C2=CC=CC=C2)N,-,[amino(anilino)methylidene]-phenylazanium,MeCN,CC#N,17.9,Bases_pKa_values_MeCN_DMSO_THF_Water.pdf
1414,102-06-7,C1=CC=C(C=C1)NC(=[NH+]C2=CC=CC=C2)N,-,[amino(anilino)methylidene]-phenylazanium,THF,C1CCOC1,13.9,Bases_pKa_values_MeCN_DMSO_THF_Water.pdf
89,39077-43-5,C1=CC=C(C=C1)NC2=C(C(=NC(=C2F)F)F)F,39077-43-5,"2,3,5,6-tetrafluoro-N-phenylpyridin-4-amine",MeCN,CC#N,26.34,MeCN_Acids_COSMO-RS_2008_Table.pdf
598,(4-NC5F4)(C6F5)NH,C1=CC=C(C=C1)NC2=C(C(=NC(=C2F)F)F)F,39077-43-5,"2,3,5,6-tetrafluoro-N-phenylpyridin-4-amine",MeCN,CC#N,20.39,pKa_values_of_acids_in_acetonitrile.pdf
773,39077-43-5,C1=CC=C(C=C1)NC2=C(C(=NC(=C2F)F)F)F,39077-43-5,"2,3,5,6-tetrafluoro-N-phenylpyridin-4-amine",MeCN,CC#N,26.36,Ejoc202001649-sup-00001-misc_information.pdf
1061,(4-NC5F4)(C6F5)NH,C1=CC=C(C=C1)NC2=C(C(=NC(=C2F)F)F)F,39077-43-5,"2,3,5,6-tetrafluoro-N-phenylpyridin-4-amine",DMSO,CS(=O)C,8.3,Ejoc202001649-sup-00001-misc_information.pdf
1427,(4-NC5F4)(C6H5)NH,C1=CC=C(C=C1)NC2=C(C(=NC(=C2F)F)F)F,39077-43-5,"2,3,5,6-tetrafluoro-N-phenylpyridin-4-amine",MeCN,CC#N,26.34,leito_acids
197,Phenol,C1=CC=C(C=C1)O,108-95-2,phenol,MeCN,CC#N,29.14,MeCN_Acids_COSMO-RS_2008_Table.pdf
521,Phenol,C1=CC=C(C=C1)O,108-95-2,phenol,MeCN,CC#N,29.2,pKa_values_of_acids_in_acetonitrile.pdf
750,108-95-2,C1=CC=C(C=C1)O,108-95-2,phenol,MeCN,CC#N,29.2,Ejoc202001649-sup-00001-misc_information.pdf
976,108-95-2,C1=CC=C(C=C1)O,108-95-2,phenol,H2O,O,9.99,Ejoc202001649-sup-00001-misc_information.pdf
1023,108-95-2,C1=CC=C(C=C1)O,108-95-2,phenol,DMSO,CS(=O)C,18,Ejoc202001649-sup-00001-misc_information.pdf
1139,108-95-2,C1=CC=C(C=C1)O,108-95-2,phenol,DMF,CN(C)C=O,18.4,Ejoc202001649-sup-00001-misc_information.pdf
1422,Phenol,C1=CC=C(C=C1)O,108-95-2,phenol,MeCN,CC#N,29.14,leito_acids
1630,[C6H5SO(=NTf)]2NH,C1=CC=C(C=C1)S(=NS(=O)(=O)C(F)(F)F)(=O)NS(=NS(=O)(=O)C(F)(F)F)(=O)C2=CC=CC=C2,771460-54-9,"1,1,1-trifluoro-N-[oxo-phenyl-[[S-phenyl-N-(trifluoromethylsulfonyl)sulfonimidoyl]amino]-6-sulfanylidene]methanesulfonamide",DCE,C(CCl)Cl,33.6,leito_acids
137,Benzenesulfonamide,C1=CC=C(C=C1)S(=O)(=O)N,98-10-2,benzenesulfonamide,MeCN,CC#N,24.61,MeCN_Acids_COSMO-RS_2008_Table.pdf
769,98-10-2,C1=CC=C(C=C1)S(=O)(=O)N,98-10-2,benzenesulfonamide,MeCN,CC#N,26.63,Ejoc202001649-sup-00001-misc_information.pdf
980,98-10-2,C1=CC=C(C=C1)S(=O)(=O)N,98-10-2,benzenesulfonamide,H2O,O,10.1,Ejoc202001649-sup-00001-misc_information.pdf
1032,98-10-2,C1=CC=C(C=C1)S(=O)(=O)N,98-10-2,benzenesulfonamide,DMSO,CS(=O)C,16.1,Ejoc202001649-sup-00001-misc_information.pdf
1140,98-10-2,C1=CC=C(C=C1)S(=O)(=O)N,98-10-2,benzenesulfonamide,DMF,CN(C)C=O,17.06,Ejoc202001649-sup-00001-misc_information.pdf
446,C6H5SO2NHTf,C1=CC=C(C=C1)S(=O)(=O)NS(=O)(=O)C(F)(F)F,174788-87-5,N-(trifluoromethylsulfonyl)benzenesulfonamide,MeCN,CC#N,5.55,DCE_2011_pKa_Table_MeCN.pdf
956,174788-87-5,C1=CC=C(C=C1)S(=O)(=O)NS(=O)(=O)C(F)(F)F,174788-87-5,N-(trifluoromethylsulfonyl)benzenesulfonamide,MeCN,CC#N,5.52,Ejoc202001649-sup-00001-misc_information.pdf
1546,C6H5SO2NHTf,C1=CC=C(C=C1)S(=O)(=O)NS(=O)(=O)C(F)(F)F,174788-87-5,N-(trifluoromethylsulfonyl)benzenesulfonamide,MeCN,CC#N,5.55,leito_acids
77,2618-96-4,C1=CC=C(C=C1)S(=O)(=O)NS(=O)(=O)C2=CC=CC=C2,2618-96-4,N-(benzenesulfonyl)benzenesulfonamide,MeCN,CC#N,11.34,MeCN_Acids_COSMO-RS_2008_Table.pdf
894,2618-96-4,C1=CC=C(C=C1)S(=O)(=O)NS(=O)(=O)C2=CC=CC=C2,2618-96-4,N-(benzenesulfonyl)benzenesulfonamide,MeCN,CC#N,11.35,Ejoc202001649-sup-00001-misc_information.pdf
1153,2618-96-4,C1=CC=C(C=C1)S(=O)(=O)NS(=O)(=O)C2=CC=CC=C2,2618-96-4,N-(benzenesulfonyl)benzenesulfonamide,DMF,CN(C)C=O,3.66,Ejoc202001649-sup-00001-misc_information.pdf
1497,(C6H5SO2)2NH,C1=CC=C(C=C1)S(=O)(=O)NS(=O)(=O)C2=CC=CC=C2,2618-96-4,N-(benzenesulfonyl)benzenesulfonamide,MeCN,CC#N,11.34,leito_acids
694,PhSO3H,C1=CC=C(C=C1)S(=O)(=O)O,98-11-3,benzenesulfonic acid,MeCN,CC#N,8.2,pKa_values_of_acids_in_acetonitrile.pdf
923,98-11-3,C1=CC=C(C=C1)S(=O)(=O)O,98-11-3,benzenesulfonic acid,MeCN,CC#N,8.2,Ejoc202001649-sup-00001-misc_information.pdf
360,Quinoxaline,C1=CC=C2C(=C1)[NH+]=CC=N2,,quinoxalin-1-ium,MeCN,CC#N,7.4,pKa_values_of_nitrogen_heterocycles.pdf
401,Quinoxaline,C1=CC=C2C(=C1)[NH+]=CC=N2,,quinoxalin-1-ium,H2O,O,0.56,pKa_values_of_nitrogen_heterocycles.pdf
586,3-nitroIndole,C1=CC=C2C(=C1)C(=CN2)[N+](=O)[O-],4770-03-0,3-nitro-1H-indole,MeCN,CC#N,22.77,pKa_values_of_acids_in_acetonitrile.pdf
816,4770-03-0,C1=CC=C2C(=C1)C(=CN2)[N+](=O)[O-],4770-03-0,3-nitro-1H-indole,MeCN,CC#N,22.77,Ejoc202001649-sup-00001-misc_information.pdf
995,4770-03-0,C1=CC=C2C(=C1)C(=CN2)[N+](=O)[O-],4770-03-0,3-nitro-1H-indole,H2O,O,10.12,Ejoc202001649-sup-00001-misc_information.pdf
549,3-cyanoIndole,C1=CC=C2C(=C1)C(=CN2)C#N,5457-28-3,1H-indole-3-carbonitrile,MeCN,CC#N,26.01,pKa_values_of_acids_in_acetonitrile.pdf
779,5457-28-3,C1=CC=C2C(=C1)C(=CN2)C#N,5457-28-3,1H-indole-3-carbonitrile,MeCN,CC#N,26.01,Ejoc202001649-sup-00001-misc_information.pdf
593,Alizarin,C1=CC=C2C(=C1)C(=O)C3=C(C2=O)C(=C(C=C3)O)O,72-48-0,"1,2-dihydroxyanthracene-9,10-dione",MeCN,CC#N,21.23,pKa_values_of_acids_in_acetonitrile.pdf
823,72-48-0,C1=CC=C2C(=C1)C(=O)C3=C(C2=O)C(=C(C=C3)O)O,72-48-0,"1,2-dihydroxyanthracene-9,10-dione",MeCN,CC#N,21.23,Ejoc202001649-sup-00001-misc_information.pdf
67,Saccharin,C1=CC=C2C(=C1)C(=O)NS2(=O)=O,128-44-9,"1,1-dioxo-1,2-benzothiazol-3-one",MeCN,CC#N,14.57,MeCN_Acids_COSMO-RS_2008_Table.pdf
229,Saccharin,C1=CC=C2C(=C1)C(=O)NS2(=O)=O,128-44-9,"1,1-dioxo-1,2-benzothiazol-3-one",MeCN,CC#N,14.57,pKa_values_of_acids_and_bases_in_MeCN_DCE_DMSO_H2O_THF_C7_DME.pdf
261,Saccharin,C1=CC=C2C(=C1)C(=O)NS2(=O)=O,128-44-9,"1,1-dioxo-1,2-benzothiazol-3-one",DMSO,CS(=O)C,4,pKa_values_of_acids_and_bases_in_MeCN_DCE_DMSO_H2O_THF_C7_DME.pdf
277,Saccharin,C1=CC=C2C(=C1)C(=O)NS2(=O)=O,128-44-9,"1,1-dioxo-1,2-benzothiazol-3-one",H2O,O,1.8,pKa_values_of_acids_and_bases_in_MeCN_DCE_DMSO_H2O_THF_C7_DME.pdf
640,Saccharin,C1=CC=C2C(=C1)C(=O)NS2(=O)=O,128-44-9,"1,1-dioxo-1,2-benzothiazol-3-one",MeCN,CC#N,14.57,pKa_values_of_acids_in_acetonitrile.pdf
870,81-07-2,C1=CC=C2C(=C1)C(=O)NS2(=O)=O,128-44-9,"1,1-dioxo-1,2-benzothiazol-3-one",MeCN,CC#N,14.57,Ejoc202001649-sup-00001-misc_information.pdf
1011,81-07-2,C1=CC=C2C(=C1)C(=O)NS2(=O)=O,128-44-9,"1,1-dioxo-1,2-benzothiazol-3-one",H2O,O,1.8,Ejoc202001649-sup-00001-misc_information.pdf
1083,81-07-2,C1=CC=C2C(=C1)C(=O)NS2(=O)=O,128-44-9,"1,1-dioxo-1,2-benzothiazol-3-one",DMSO,CS(=O)C,4,Ejoc202001649-sup-00001-misc_information.pdf
1481,Saccharin,C1=CC=C2C(=C1)C(=O)NS2(=O)=O,81-07-2,"1,1-dioxo-1,2-benzothiazol-3-one",MeCN,CC#N,14.57,leito_acids
35,9-Cyanofluorene,C1=CC=C2C(=C1)C(C3=CC=CC=C32)C#N,1529-40-4,9H-fluorene-9-carbonitrile,MeCN,CC#N,21.36,MeCN_Acids_COSMO-RS_2008_Table.pdf
99,9-Cyanofluorene,C1=CC=C2C(=C1)C(C3=CC=CC=C32)C#N,1529-40-4,9H-fluorene-9-carbonitrile,MeCN,CC#N,20.8,MeCN_Acids_COSMO-RS_2008_Table.pdf
466,9-CN-fluorene,C1=CC=C2C(=C1)C(C3=CC=CC=C32)C#N,1529-40-4,9H-fluorene-9-carbonitrile,MeCN,CC#N,21.36,a_unified_view_to_bronsted_acidity_scales.pdf
508,9-CN-fluorene,C1=CC=C2C(=C1)C(C3=CC=CC=C32)C#N,1529-40-4,9H-fluorene-9-carbonitrile,DMSO,CS(=O)C,8.3,a_unified_view_to_bronsted_acidity_scales.pdf
592,9-CN-Fluorene,C1=CC=C2C(=C1)C(C3=CC=CC=C32)C#N,1529-40-4,9H-fluorene-9-carbonitrile,MeCN,CC#N,21.35,pKa_values_of_acids_in_acetonitrile.pdf
822,1529-40-4,C1=CC=C2C(=C1)C(C3=CC=CC=C32)C#N,1529-40-4,9H-fluorene-9-carbonitrile,MeCN,CC#N,21.35,Ejoc202001649-sup-00001-misc_information.pdf
998,1529-40-4,C1=CC=C2C(=C1)C(C3=CC=CC=C32)C#N,1529-40-4,9H-fluorene-9-carbonitrile,H2O,O,10.7,Ejoc202001649-sup-00001-misc_information.pdf
1058,1529-40-4,C1=CC=C2C(=C1)C(C3=CC=CC=C32)C#N,1529-40-4,9H-fluorene-9-carbonitrile,DMSO,CS(=O)C,8.3,Ejoc202001649-sup-00001-misc_information.pdf
1096,1529-40-4,C1=CC=C2C(=C1)C(C3=CC=CC=C32)C#N,1529-40-4,9H-fluorene-9-carbonitrile,DCE,C(CCl)Cl,55.9,Ejoc202001649-sup-00001-misc_information.pdf
1447,9-CN-fluorene,C1=CC=C2C(=C1)C(C3=CC=CC=C32)C#N,1529-40-4,9H-fluorene-9-carbonitrile,MeCN,CC#N,21.36,leito_acids
1570,9-CN-fluorene,C1=CC=C2C(=C1)C(C3=CC=CC=C32)C#N,1529-40-4,9H-fluorene-9-carbonitrile,DCE,C(CCl)Cl,55.9,leito_acids
526,9-C6F5-Fluorene,C1=CC=C2C(=C1)C(C3=CC=CC=C32)C4=C(C(=C(C(=C4F)F)F)F)F,73482-93-6,"9-(2,3,4,5,6-pentafluorophenyl)-9H-fluorene",MeCN,CC#N,28.14,pKa_values_of_acids_in_acetonitrile.pdf
1424,9-C6F5-fluorene,C1=CC=C2C(=C1)C(C3=CC=CC=C32)C4=C(C(=C(C(=C4F)F)F)F)F,73482-93-6,"9-(2,3,4,5,6-pentafluorophenyl)-9H-fluorene",MeCN,CC#N,28.11,leito_acids
348,Quinazoline,C1=CC=C2C(=C1)C=[NH+]C=N2,,quinazolin-3-ium,MeCN,CC#N,9.19,pKa_values_of_nitrogen_heterocycles.pdf
394,Quinazoline,C1=CC=C2C(=C1)C=[NH+]C=N2,,quinazolin-3-ium,H2O,O,1.95,pKa_values_of_nitrogen_heterocycles.pdf
358,Indazole,C1=CC=C2C(=C1)C=[NH+]N2,-,1H-indazol-2-ium,MeCN,CC#N,7.61,pKa_values_of_nitrogen_heterocycles.pdf
399,Indazole,C1=CC=C2C(=C1)C=[NH+]N2,-,1H-indazol-2-ium,H2O,O,1.25,pKa_values_of_nitrogen_heterocycles.pdf
1213,271-44-3,C1=CC=C2C(=C1)C=[NH+]N2,-,1H-indazol-2-ium,H2O,O,1.25,Bases_pKa_values_MeCN_DMSO_THF_Water.pdf
1346,271-44-3,C1=CC=C2C(=C1)C=[NH+]N2,-,1H-indazol-2-ium,MeCN,CC#N,7.61,Bases_pKa_values_MeCN_DMSO_THF_Water.pdf
964,1486486-93-4,C1=CC=C2C(=C1)C=C(C3=C2C4=C(C(=CC5=CC=CC=C54)C6=CC(=CC(=C6)C(F)(F)F)C(F)(F)F)OS(=O)(=O)NS(=O)(=O)O3)C7=CC(=CC(=C7)C(F)(F)F)C(F)(F)F,1486486-93-4,"10,18-bis[3,5-bis(trifluoromethyl)phenyl]-12,16-dioxa-136,156-dithia-14-azapentacyclo[15.8.0.02,11.03,8.020,25]pentacosa-1(17),2(11),3,5,7,9,18,20,22,24-decaene 13,13,15,15-tetraoxide",MeCN,CC#N,4.97,Ejoc202001649-sup-00001-misc_information.pdf
1551,Substance17,C1=CC=C2C(=C1)C=C(C3=C2C4=C(C(=CC5=CC=CC=C54)C6=CC(=CC(=C6)C(F)(F)F)C(F)(F)F)OS(=O)(=O)NS(=O)(=O)O3)C7=CC(=CC(=C7)C(F)(F)F)C(F)(F)F,1486486-93-4,"10,18-bis[3,5-bis(trifluoromethyl)phenyl]-12,16-dioxa-136,156-dithia-14-azapentacyclo[15.8.0.02,11.03,8.020,25]pentacosa-1(17),2(11),3,5,7,9,18,20,22,24-decaene 13,13,15,15-tetraoxide",MeCN,CC#N,5.2,leito_acids
880,864943-22-6,C1=CC=C2C(=C1)C=C(C3=CC=CC=C23)C4=CC5=CC=CC=C5C6=C4OP(=O)(OC7=C6C8=CC=CC=C8C=C7C9=CC1=CC=CC=C1C1=CC=CC=C19)O,864943-22-6,"13-hydroxy-10,16-di(phenanthren-9-yl)-12,14-dioxa-13_5-phosphapentacyclo[13.8.0.02,11.03,8.018,23]tricosa-1(15),2(11),3,5,7,9,16,18,20,22-decaene 13-oxide",MeCN,CC#N,13.32,Ejoc202001649-sup-00001-misc_information.pdf
1488,Substance5,C1=CC=C2C(=C1)C=C(C3=CC=CC=C23)C4=CC5=CC=CC=C5C6=C4OP(=O)(OC7=C6C8=CC=CC=C8C=C7C9=CC1=CC=CC=C1C1=CC=CC=C19)O,864943-22-6,"13-hydroxy-10,16-di(phenanthren-9-yl)-12,14-dioxa-13_5-phosphapentacyclo[13.8.0.02,11.03,8.018,23]tricosa-1(15),2(11),3,5,7,9,16,18,20,22-decaene 13-oxide",MeCN,CC#N,13.3,leito_acids
575,2-nitroIndole,C1=CC=C2C(=C1)C=C(N2)[N+](=O)[O-],60544-75-4,2-nitro-1H-indole,MeCN,CC#N,23.64,pKa_values_of_acids_in_acetonitrile.pdf
341,Cinnoline,C1=CC=C2C(=C1)C=C[NH+]=N2,,cinnolin-2-ium,MeCN,CC#N,10.5,pKa_values_of_nitrogen_heterocycles.pdf
392,Cinnoline,C1=CC=C2C(=C1)C=C[NH+]=N2,,cinnolin-2-ium,H2O,O,2.29,pKa_values_of_nitrogen_heterocycles.pdf