,Unnamed: 0,checking?,solute,solute SMILES,computed CAS,computed IUPAC,solvent,solvent SMILES,pka,ref
846,846,,2249843-76-1,CCN(CC)C(=O)N(C)N=O,50285-72-8,"1,1-diethyl-3-methyl-3-nitrosourea",MeCN,CC#N,18.45,Ejoc202001649-sup-00001-misc_information.pdf
847,847,,92916-62-6,B1(OC(C(O1)(C)C)(C)C)C2=CC(=CC(=C2)Cl)OC,929626-16-4,"2-(3-chloro-5-methoxyphenyl)-4,4,5,5-tetramethyl-1,3,2-dioxaborolane",MeCN,CC#N,18.25,Ejoc202001649-sup-00001-misc_information.pdf
848,848,,42238-35-7,C1=C(C=C(C=C1N)Br)C(=O)O,42237-85-4,3-amino-5-bromobenzoic acid,MeCN,CC#N,18.13,Ejoc202001649-sup-00001-misc_information.pdf
849,849,T,2894-87-3,C1(=C(C(=C(C(=C1F)F)O)F)F)C2=C(C(=C(C(=C2F)F)F)F)F,2894-87-3,"2,3,5,6-tetrafluoro-4-(2,3,4,5,6-pentafluorophenyl)phenol",MeCN,CC#N,18.1,Ejoc202001649-sup-00001-misc_information.pdf
850,850,,2408902-96-3,no matches,-,-,MeCN,CC#N,18.1,Ejoc202001649-sup-00001-misc_information.pdf
851,851,,55852-22-7,CC1(CC(C(=O)O1)N2C3=CC=CC=C3C=C2CC(=O)N)C,77694-41-8,"2-[1-(5,5-dimethyl-2-oxooxolan-3-yl)indol-2-yl]acetamide",MeCN,CC#N,18.07,Ejoc202001649-sup-00001-misc_information.pdf
852,852,,87-86-5,C1(=C(C(=C(C(=C1Cl)Cl)Cl)Cl)Cl)O,87-86-5,"2,3,4,5,6-pentachlorophenol",MeCN,CC#N,18.0,Ejoc202001649-sup-00001-misc_information.pdf
853,853,T,608-71-9,C1(=C(C(=C(C(=C1Br)Br)Br)Br)Br)O,608-71-9,"2,3,4,5,6-pentabromophenol",MeCN,CC#N,17.81,Ejoc202001649-sup-00001-misc_information.pdf
854,854,,2340-87-6,CCOC(=O)C(C#N)C1=C(C(=C(C(=C1F)F)F)F)F,-,"ethyl 2-cyano-2-(2,3,4,5,6-pentafluorophenyl)acetate",MeCN,CC#N,17.73,Ejoc202001649-sup-00001-misc_information.pdf
855,855,T,33534-88-2,CC1=CC=C(C=C1)C(C#N)C#N,33534-88-2,2-(4-methylphenyl)propanedinitrile,MeCN,CC#N,17.57,Ejoc202001649-sup-00001-misc_information.pdf
856,856,,62325-34-2,no matches,-,-,MeCN,CC#N,17.48,Ejoc202001649-sup-00001-misc_information.pdf
857,857,,55810-56-5,no SMILES,654055-01-3,"2-(2,4-dihydroxyphenyl)-3,5,7-trihydroxychromen-4-one;dihydrate",MeCN,CC#N,17.38,Ejoc202001649-sup-00001-misc_information.pdf
858,858,,35622-48-1,no SMILES,654055-01-3,"2-(2,4-dihydroxyphenyl)-3,5,7-trihydroxychromen-4-one;dihydrate",MeCN,CC#N,17.2,Ejoc202001649-sup-00001-misc_information.pdf
859,859,,Br4-CX-benzoic acid,no matches,-,-,MeCN,CC#N,17.19,Ejoc202001649-sup-00001-misc_information.pdf
860,860,,534-52-1,CC1=CC(=CC(=C1O)[N+](=O)[O-])[N+](=O)[O-],534-52-1,"2-methyl-4,6-dinitrophenol",MeCN,CC#N,16.97,Ejoc202001649-sup-00001-misc_information.pdf
861,861,,573-56-8,C1=CC(=C(C(=C1)[N+](=O)[O-])O)[N+](=O)[O-],573-56-8,"2,6-dinitrophenol",MeCN,CC#N,16.74,Ejoc202001649-sup-00001-misc_information.pdf
862,862,,51-28-5,no SMILES,654055-01-3,"2-(2,4-dihydroxyphenyl)-3,5,7-trihydroxychromen-4-one;dihydrate",MeCN,CC#N,16.65,Ejoc202001649-sup-00001-misc_information.pdf
863,863,T,2787-79-3,C1(=C(C(=C(C(=C1F)F)O)F)F)C(F)(F)F,2787-79-3,"2,3,5,6-tetrafluoro-4-(trifluoromethyl)phenol",MeCN,CC#N,16.6,Ejoc202001649-sup-00001-misc_information.pdf
864,864,,62325-51-3,C1=CC2=C(C=CC3=C2C=CC(=C3)Br)C=C1Br,62325-30-8,"2,7-dibromophenanthrene",MeCN,CC#N,16.39,Ejoc202001649-sup-00001-misc_information.pdf
865,865,,364-32-9,C1=C(C=C(C(=C1[N+](=O)[O-])O)[N+](=O)[O-])F,364-32-9,"4-fluoro-2,6-dinitrophenol",MeCN,CC#N,16.17,Ejoc202001649-sup-00001-misc_information.pdf
866,866,,58432-55-6,no matches,-,-,MeCN,CC#N,16.12,Ejoc202001649-sup-00001-misc_information.pdf
867,867,T,32251-53-9,CCOC(=O)C(C#N)C1=C(C(=C(C(=C1F)F)C(F)(F)F)F)F,32251-53-9,"ethyl 2-cyano-2-[2,3,5,6-tetrafluoro-4-(trifluoromethyl)phenyl]acetate",MeCN,CC#N,16.07,Ejoc202001649-sup-00001-misc_information.pdf
868,868,,62325-37-5,no SMILES,654055-01-3,"2-(2,4-dihydroxyphenyl)-3,5,7-trihydroxychromen-4-one;dihydrate",MeCN,CC#N,16.01,Ejoc202001649-sup-00001-misc_information.pdf
869,869,,854631-03-1,no matches,-,-,MeCN,CC#N,15.68,Ejoc202001649-sup-00001-misc_information.pdf
870,870,T,2693-66-5,C1(=C(NC(=C(C1=O)F)F)F)F,2693-66-5,"2,3,5,6-tetrafluoro-1H-pyridin-4-one",MeCN,CC#N,15.39,Ejoc202001649-sup-00001-misc_information.pdf
871,871,,55810-61-2,no matches,-,-,MeCN,CC#N,14.89,Ejoc202001649-sup-00001-misc_information.pdf
872,872,T,99726-60-0,C1=CC(=CC(=C1)C(F)(F)F)C(C#N)C#N,99726-60-0,2-[3-(trifluoromethyl)phenyl]propanedinitrile,MeCN,CC#N,14.7,Ejoc202001649-sup-00001-misc_information.pdf
873,873,T,81-07-2,C1=CC=C2C(=C1)C(=O)NS2(=O)=O,128-44-9,"1,1-dioxo-1,2-benzothiazol-3-one",MeCN,CC#N,14.57,Ejoc202001649-sup-00001-misc_information.pdf
874,874,,1378040-90-4,COC(=O)C1=CC=C(C=C1)OC2=NC=C(C=C2)I,-,methyl 4-(5-iodopyridin-2-yl)oxybenzoate,MeCN,CC#N,14.55,Ejoc202001649-sup-00001-misc_information.pdf
875,875,,4-NO2-C6H4-SO2-NH-CO-C6H4-3-Cl,no matches,-,-,MeCN,CC#N,14.43,Ejoc202001649-sup-00001-misc_information.pdf
876,876,,946-31-6,C1=C(C=C(C(=C1[N+](=O)[O-])O)Cl)[N+](=O)[O-],946-31-6,"2-chloro-4,6-dinitrophenol",MeCN,CC#N,14.23,Ejoc202001649-sup-00001-misc_information.pdf
877,877,,934201-93-1,C1CCC2=C3C4=C5CCCCC5=CC(=C4OP(=O)(OC3=C(C=C2C1)C6=CC7=CC=CC=C7C8=CC=CC=C86)O)C9=CC1=CC=CC=C1C1=CC=CC=C19,-,"13-hydroxy-10,16-di(phenanthren-9-yl)-12,14-dioxa-135-phosphapentacyclo[13.8.0.02,11.03,8.018,23]tricosa-1(23),2,8,10,15,17-hexaene 13-oxide",MeCN,CC#N,13.97,Ejoc202001649-sup-00001-misc_information.pdf
878,878,,64934-71-0,no matches,-,-,MeCN,CC#N,13.87,Ejoc202001649-sup-00001-misc_information.pdf
879,879,,791616-63-2,CC(C)C1=CC(=C(C(=C1)C(C)C)C2=CC3=CC=CC=C3C4=C2OP(=O)(OC5=C4C6=CC=CC=C6C=C5C7=C(C=C(C=C7C(C)C)C(C)C)C(C)C)O)C(C)C,791616-63-2,"13-hydroxy-10,16-bis[2,4,6-tri(propan-2-yl)phenyl]-12,14-dioxa-135-phosphapentacyclo[13.8.0.02,11.03,8.018,23]tricosa-1(15),2(11),3,5,7,9,16,18,20,22-decaene 13-oxide",MeCN,CC#N,13.63,Ejoc202001649-sup-00001-misc_information.pdf
880,880,,2489223-24-5,B1(OC(C(O1)(C)C)(C)C)C2=COC=C2,248924-59-6,"2-(furan-3-yl)-4,4,5,5-tetramethyl-1,3,2-dioxaborolane",MeCN,CC#N,13.55,Ejoc202001649-sup-00001-misc_information.pdf
881,881,,64934-72-1,CC(C)C(C=O)Br,64932-36-1,2-bromo-3-methylbutanal,MeCN,CC#N,13.47,Ejoc202001649-sup-00001-misc_information.pdf
882,882,,"2,3,4,5,6-(CF3)5-C6-CH(CN)COOEt",no matches,-,-,MeCN,CC#N,13.41,Ejoc202001649-sup-00001-misc_information.pdf
883,883,,864943-22-6,C1=CC=C2C(=C1)C=C(C3=CC=CC=C23)C4=CC5=CC=CC=C5C6=C4OP(=O)(OC7=C6C8=CC=CC=C8C=C7C9=CC1=CC=CC=C1C1=CC=CC=C19)O,864943-22-6,"13-hydroxy-10,16-di(phenanthren-9-yl)-12,14-dioxa-135-phosphapentacyclo[13.8.0.02,11.03,8.018,23]tricosa-1(15),2(11),3,5,7,9,16,18,20,22-decaene 13-oxide",MeCN,CC#N,13.32,Ejoc202001649-sup-00001-misc_information.pdf
884,884,T,719-38-0,C(#N)C(C#N)C1=C(C(=C(C(=C1F)F)F)F)F,719-38-0,"2-(2,3,4,5,6-pentafluorophenyl)propanedinitrile",MeCN,CC#N,13.01,Ejoc202001649-sup-00001-misc_information.pdf
885,885,,55810-63-4,CCN(CC)CCOCC[Si](C)(C1=CC=CC=C1)C2=CC=CC=C2,70737-24-5,"N,N-diethyl-2-[2-[methyl(diphenyl)silyl]ethoxy]ethanamine",MeCN,CC#N,12.98,Ejoc202001649-sup-00001-misc_information.pdf
886,886,,695162-86-8,C1=CC=C(C=C1)C2=CC3=CC=CC=C3C4=C2OP(=O)(OC5=C4C6=CC=CC=C6C=C5C7=CC=CC=C7)O,1244725-08-3,"13-hydroxy-10,16-diphenyl-12,14-dioxa-135-phosphapentacyclo[13.8.0.02,11.03,8.018,23]tricosa-1(15),2(11),3,5,7,9,16,18,20,22-decaene 13-oxide",MeCN,CC#N,12.73,Ejoc202001649-sup-00001-misc_information.pdf
887,887,,2408902-84-9,CCOP(=O)(NC(=O)C)SC,30560-37-3,N-[ethoxy(methylsulfanyl)phosphoryl]acetamide,MeCN,CC#N,12.69,Ejoc202001649-sup-00001-misc_information.pdf
888,888,,915038-14-1,CCC1C2CC(CCC2(C3CCC4(C(C3C1=O)CCC4C(C)CCC(=O)O)C)C)O,-,-,MeCN,CC#N,12.46,Ejoc202001649-sup-00001-misc_information.pdf
889,889,,1541182-00-6,C1CCC(C(C1)NC(=O)C2=C(C(=C(C(=C2Br)Br)Br)Br)C(=O)O)NC(=S)NC3=CC(=CC(=C3)C(F)(F)F)C(F)(F)F,-,"2-[[2-[[3,5-bis(trifluoromethyl)phenyl]carbamothioylamino]cyclohexyl]carbamoyl]-3,4,5,6-tetrabromobenzoic acid",MeCN,CC#N,12.4,Ejoc202001649-sup-00001-misc_information.pdf
890,890,T,62325-35-3,C(#N)C(C#N)C1=C(C2=C(C(=C1F)F)C(=C(C(=C2F)F)F)F)F,62325-35-3,"2-(1,3,4,5,6,7,8-heptafluoronaphthalen-2-yl)propanedinitrile",MeCN,CC#N,12.23,Ejoc202001649-sup-00001-misc_information.pdf
891,891,T,3695-00-9,CC1=CC=C(C=C1)S(=O)(=O)NS(=O)(=O)C2=CC=C(C=C2)C,3695-00-9,4-methyl-N-(4-methylphenyl)sulfonylbenzenesulfonamide,MeCN,CC#N,11.97,Ejoc202001649-sup-00001-misc_information.pdf
892,892,,14561-75-2,CC(C)(C)C1=CC=C(C=C1)[S+](C2=CC=CC=C2)C3=CC=CC=C3.C(F)(F)(F)S(=O)(=O)[O-],145612-66-4,(4-tert-butylphenyl)-diphenylsulfanium;trifluoromethanesulfonate,MeCN,CC#N,11.89,Ejoc202001649-sup-00001-misc_information.pdf
893,893,,2489223-25-6,no SMILES,654055-01-3,"2-(2,4-dihydroxyphenyl)-3,5,7-trihydroxychromen-4-one;dihydrate",MeCN,CC#N,11.8,Ejoc202001649-sup-00001-misc_information.pdf
894,894,,7077-65-8,C1=CC(=CC=C1C(C#N)C#N)[N+](=O)[O-],7077-65-8,2-(4-nitrophenyl)propanedinitrile,MeCN,CC#N,11.61,Ejoc202001649-sup-00001-misc_information.pdf
895,895,,39063-05-3,C1=CC=C(C=C1)C2=C(C=CC=N2)C#N,39065-49-1,2-phenylpyridine-3-carbonitrile,MeCN,CC#N,11.6,Ejoc202001649-sup-00001-misc_information.pdf
896,896,,23383-99-5,no matches,-,-,MeCN,CC#N,11.48,Ejoc202001649-sup-00001-misc_information.pdf
897,897,T,343337-70-2,CC1=CC=C(C=C1)C(=O)NS(=O)(=O)C(F)(F)F,343337-70-2,4-methyl-N-(trifluoromethylsulfonyl)benzamide,MeCN,CC#N,11.46,Ejoc202001649-sup-00001-misc_information.pdf
898,898,T,2618-96-4,C1=CC=C(C=C1)S(=O)(=O)NS(=O)(=O)C2=CC=CC=C2,2618-96-4,N-(benzenesulfonyl)benzenesulfonamide,MeCN,CC#N,11.35,Ejoc202001649-sup-00001-misc_information.pdf
899,899,,4-MeO-C6H4-SO2-NH-SO2-C6H4-4-Cl,no matches,-,-,MeCN,CC#N,11.29,Ejoc202001649-sup-00001-misc_information.pdf
900,900,,958028-58-5,no SMILES,654055-01-3,"2-(2,4-dihydroxyphenyl)-3,5,7-trihydroxychromen-4-one;dihydrate",MeCN,CC#N,11.25,Ejoc202001649-sup-00001-misc_information.pdf
901,901,,1685282-48-7,CC(C)C(C(=O)N)NC(=O)C1=NN(C2=CC=CC=C21)CC3=CC=C(C=C3)F,1629062-56-1,N-(1-amino-3-methyl-1-oxobutan-2-yl)-1-[(4-fluorophenyl)methyl]indazole-3-carboxamide,MeCN,CC#N,11.19,Ejoc202001649-sup-00001-misc_information.pdf
902,902,,69173-28-0,COC1=C(C=C(C=C1)S(=O)(=O)N)Cl,69173-20-2,3-chloro-4-methoxybenzenesulfonamide,MeCN,CC#N,11.1,Ejoc202001649-sup-00001-misc_information.pdf
903,903,,39062-91-4,C1=CC=C2C(=C1)C(=C(C=N2)[N+](=O)[O-])Cl,39061-97-7,4-chloro-3-nitroquinoline,MeCN,CC#N,11.07,Ejoc202001649-sup-00001-misc_information.pdf
904,904,T,88-89-1,C1=C(C=C(C(=C1[N+](=O)[O-])O)[N+](=O)[O-])[N+](=O)[O-],88-89-1,"2,4,6-trinitrophenol",MeCN,CC#N,11.0,Ejoc202001649-sup-00001-misc_information.pdf
905,905,,480-68-2,C1(C(=O)NC(=O)NC1=O)[N+](=O)[O-],480-68-2,"5-nitro-1,3-diazinane-2,4,6-trione",MeCN,CC#N,10.72,Ejoc202001649-sup-00001-misc_information.pdf
906,906,,39063-00-8,no SMILES,654055-01-3,"2-(2,4-dihydroxyphenyl)-3,5,7-trihydroxychromen-4-one;dihydrate",MeCN,CC#N,10.65,Ejoc202001649-sup-00001-misc_information.pdf
907,907,,131-73-7,C1=C(C=C(C(=C1[N+](=O)[O-])NC2=C(C=C(C=C2[N+](=O)[O-])[N+](=O)[O-])[N+](=O)[O-])[N+](=O)[O-])[N+](=O)[O-],131-73-7,"2,4,6-trinitro-N-(2,4,6-trinitrophenyl)aniline",MeCN,CC#N,10.54,Ejoc202001649-sup-00001-misc_information.pdf
908,908,T,723294-91-5,C1(=C(C(=C(C(=C1C(F)(F)F)C(F)(F)F)O)C(F)(F)F)C(F)(F)F)C(F)(F)F,723294-91-5,"2,3,4,5,6-pentakis(trifluoromethyl)phenol",MeCN,CC#N,10.46,Ejoc202001649-sup-00001-misc_information.pdf
909,909,,1018330-49-8,no matches,-,-,MeCN,CC#N,10.42,Ejoc202001649-sup-00001-misc_information.pdf
910,910,,4-Cl-C6H4-CO-NH-Tf,no matches,-,-,MeCN,CC#N,10.35,Ejoc202001649-sup-00001-misc_information.pdf
911,911,T,7647-01-0,Cl,7647-01-0,chlorane,MeCN,CC#N,10.3,Ejoc202001649-sup-00001-misc_information.pdf
912,912,,96433-16-8,B1(OCCCO1)C2=CC=C(C=C2)B3OCCCO3,96433-09-9,"2-[4-(1,3,2-dioxaborinan-2-yl)phenyl]-1,3,2-dioxaborinane",MeCN,CC#N,10.29,Ejoc202001649-sup-00001-misc_information.pdf
913,913,T,2725-55-5,C1=CC(=CC=C1S(=O)(=O)NS(=O)(=O)C2=CC=C(C=C2)Cl)Cl,2725-55-5,4-chloro-N-(4-chlorophenyl)sulfonylbenzenesulfonamide,MeCN,CC#N,10.2,Ejoc202001649-sup-00001-misc_information.pdf
914,914,T,55852-24-9,C(#N)C(C#N)C1=C(C(=C(C(=C1F)F)C(F)(F)F)F)F,55852-24-9,"2-[2,3,5,6-tetrafluoro-4-(trifluoromethyl)phenyl]propanedinitrile",MeCN,CC#N,10.19,Ejoc202001649-sup-00001-misc_information.pdf
915,915,,741243-29-8,no matches,-,-,MeCN,CC#N,10.12,Ejoc202001649-sup-00001-misc_information.pdf
916,916,,28006-58-8,CNC(=O)C1=C(C(=C(C(=C1I)NC(=O)CCCCCCCCCCC(=O)NC2=C(C(=C(C(=C2I)C(=O)O)I)C(=O)NC)I)I)C(=O)O)I,10397-78-1,"3-[[12-[3-carboxy-2,4,6-triiodo-5-(methylcarbamoyl)anilino]-12-oxododecanoyl]amino]-2,4,6-triiodo-5-(methylcarbamoyl)benzoic acid",MeCN,CC#N,10.07,Ejoc202001649-sup-00001-misc_information.pdf
917,917,,100724-78-5,CC1=CC=C(C=C1)[S](=O)(=O)N[S](=O)(=O)C2=CC=C(C=C2)[N+]([O-])=O,"4-Methyl-4'-nitro[1,1'-iminobis(sulfonyl)bis(benzene)]",4-methyl-N-(4-nitrophenyl)sulfonylbenzenesulfonamide,MeCN,CC#N,10.04,Ejoc202001649-sup-00001-misc_information.pdf
918,918,,75-75-2,CS(=O)(=O)O,75-75-2,methanesulfonic acid,MeCN,CC#N,9.97,Ejoc202001649-sup-00001-misc_information.pdf
919,919,,215395-06-5,C1=CN=C(C(=C1C(=O)O)C(=O)O)Cl,215306-02-8,"2-chloropyridine-3,4-dicarboxylic acid",MeCN,CC#N,9.68,Ejoc202001649-sup-00001-misc_information.pdf
920,920,,218964-83-1,no matches,-,-,MeCN,CC#N,9.58,Ejoc202001649-sup-00001-misc_information.pdf
921,921,T,39062-98-1,C1=CC(=CC=C1C(=O)NS(=O)(=O)C(F)(F)F)[N+](=O)[O-],39062-98-1,4-nitro-N-(trifluoromethylsulfonyl)benzamide,MeCN,CC#N,9.49,Ejoc202001649-sup-00001-misc_information.pdf
922,922,,95468-16-9,C1=CC(=CC(=C1)S(=O)(=O)NS(=O)(=O)C2=CC=C(C=C2)Cl)[N+](=O)[O-],-,N-(4-chlorophenyl)sulfonyl-3-nitrobenzenesulfonamide,MeCN,CC#N,9.17,Ejoc202001649-sup-00001-misc_information.pdf
923,923,,"2,3,4,5,6-(CF3)5-C6-CH(CN)2",no matches,-,-,MeCN,CC#N,8.88,Ejoc202001649-sup-00001-misc_information.pdf
924,924,,"[2,3,4,5,6-(CF3)5-C6]2NH",no matches,-,-,MeCN,CC#N,8.76,Ejoc202001649-sup-00001-misc_information.pdf
925,925,,1171188-83-2,no SMILES,654055-01-3,"2-(2,4-dihydroxyphenyl)-3,5,7-trihydroxychromen-4-one;dihydrate",MeCN,CC#N,8.75,Ejoc202001649-sup-00001-misc_information.pdf
926,926,T,104-15-4,CC1=CC=C(C=C1)S(=O)(=O)O,104-15-4,4-methylbenzenesulfonic acid,MeCN,CC#N,8.5,Ejoc202001649-sup-00001-misc_information.pdf
927,927,,98-11-3,C1=CC=C(C=C1)S(=O)(=O)O,98-11-3,benzenesulfonic acid,MeCN,CC#N,8.2,Ejoc202001649-sup-00001-misc_information.pdf
928,928,,116082-80-5,C1=CC(=CC(=C1)S(=O)(=O)NS(=O)(=O)C2=CC=CC(=C2)[N+](=O)[O-])[N+](=O)[O-],-,3-nitro-N-(3-nitrophenyl)sulfonylbenzenesulfonamide,MeCN,CC#N,8.16,Ejoc202001649-sup-00001-misc_information.pdf
929,929,,7/6/09,no matches,-,-,MeCN,CC#N,8.15,Ejoc202001649-sup-00001-misc_information.pdf
930,930,,1263293-54-4,CC1=NC(=C(C=C1)Br)N,126325-46-0,3-bromo-6-methylpyridin-2-amine,MeCN,CC#N,8.14,Ejoc202001649-sup-00001-misc_information.pdf
931,931,,1263293-53-3,no SMILES,654055-01-3,"2-(2,4-dihydroxyphenyl)-3,5,7-trihydroxychromen-4-one;dihydrate",MeCN,CC#N,7.94,Ejoc202001649-sup-00001-misc_information.pdf
932,932,T,85-47-2,C1=CC=C2C(=C1)C=CC=C2S(=O)(=O)O,85-47-2,naphthalene-1-sulfonic acid,MeCN,CC#N,7.9,Ejoc202001649-sup-00001-misc_information.pdf
933,933,,34350-21-5,no matches,-,-,MeCN,CC#N,7.84,Ejoc202001649-sup-00001-misc_information.pdf
934,934,,2226486-82-2,no matches,-,-,MeCN,CC#N,7.82,Ejoc202001649-sup-00001-misc_information.pdf
935,935,T,40906-82-9,C1=CC=C(C=C1)C(S(=O)(=O)C(F)(F)F)S(=O)(=O)C(F)(F)F,40906-82-9,bis(trifluoromethylsulfonyl)methylbenzene,MeCN,CC#N,7.73,Ejoc202001649-sup-00001-misc_information.pdf
936,936,,7664-93-9,OS(=O)(=O)O,7664-93-9,sulfuric acid,MeCN,CC#N,7.6,Ejoc202001649-sup-00001-misc_information.pdf
937,937,,1171188-85-4,no matches,-,-,MeCN,CC#N,7.55,Ejoc202001649-sup-00001-misc_information.pdf
938,938,,64646-01-1,no matches,-,-,MeCN,CC#N,7.47,Ejoc202001649-sup-00001-misc_information.pdf
939,939,,120879-67-6,no matches,-,-,MeCN,CC#N,7.36,Ejoc202001649-sup-00001-misc_information.pdf
940,940,T,98-66-8,C1=CC(=CC=C1S(=O)(=O)O)Cl,98-66-8,4-chlorobenzenesulfonic acid,MeCN,CC#N,7.0,Ejoc202001649-sup-00001-misc_information.pdf
941,941,,1071853-99-0,COC1=CC=C(C=C1)C2=CC3CCCCC3C4=C2OP(=O)(OC5=C(C=C6CCCCC6=C45)C7=CC=C(C=C7)OC)NS(=O)(=O)C(F)(F)F,-,"N-[10,16-bis(4-methoxyphenyl)-13-oxo-12,14-dioxa-135-phosphapentacyclo[13.8.0.02,11.03,8.018,23]tricosa-1(15),2,8,10,16-pentaen-13-yl]-1,1,1-trifluoromethanesulfonamide",MeCN,CC#N,6.83,Ejoc202001649-sup-00001-misc_information.pdf
942,942,,1261302-68-4,no matches,-,-,MeCN,CC#N,6.69,Ejoc202001649-sup-00001-misc_information.pdf
943,943,,1261302-62-8,C1CCC2=C3C4=C5CCCCC5=CC(=C4OP(=O)(OC3=C(C=C2C1)C6=CC=CC=C6)NS(=O)(=O)C(F)(F)F)C7=CC=CC=C7,-,"1,1,1-trifluoro-N-(13-oxo-10,16-diphenyl-12,14-dioxa-135-phosphapentacyclo[13.8.0.02,11.03,8.018,23]tricosa-1(23),2,8,10,15,17-hexaen-13-yl)methanesulfonamide",MeCN,CC#N,6.68,Ejoc202001649-sup-00001-misc_information.pdf
944,944,,1171188-92-3,CC1=C(C2=C(N1)C=CC(=C2)Cl)C3=CCNCC3.Cl,1171123-46-8,"5-chloro-2-methyl-3-(1,2,3,6-tetrahydropyridin-4-yl)-1H-indole;hydrochloride",MeCN,CC#N,6.68,Ejoc202001649-sup-00001-misc_information.pdf
945,945,,1261302-67-3,C1=CSC2=C1C(=NC=C2C#N)Cl,1261302-02-6,"4-chlorothieno[3,2-c]pyridine-7-carbonitrile",MeCN,CC#N,6.65,Ejoc202001649-sup-00001-misc_information.pdf
946,946,,1171188-93-4,C1=CC=NC(=C1)OC2=CC=C(C=C2)CN.Cl,1171884-78-8,(4-pyridin-2-yloxyphenyl)methanamine;hydrochloride,MeCN,CC#N,6.6,Ejoc202001649-sup-00001-misc_information.pdf
947,947,,98-47-5,C1=CC(=CC(=C1)S(=O)(=O)O)[N+](=O)[O-],98-47-5,3-nitrobenzenesulfonic acid,MeCN,CC#N,6.4,Ejoc202001649-sup-00001-misc_information.pdf
948,948,,1486486-92-3,no matches,-,-,MeCN,CC#N,6.35,Ejoc202001649-sup-00001-misc_information.pdf
949,949,,1010799-98-0,C1=CC=C(C=C1)C2=CC3=CC=CC=C3C4=C2OP(=O)(OC5=C4C6=CC=CC=C6C=C5C7=CC=CC=C7)NS(=O)(=O)C(F)(F)F,-,"1,1,1-trifluoro-N-(13-oxo-10,16-diphenyl-12,14-dioxa-135-phosphapentacyclo[13.8.0.02,11.03,8.018,23]tricosa-1(15),2(11),3,5,7,9,16,18,20,22-decaen-13-yl)methanesulfonamide",MeCN,CC#N,6.33,Ejoc202001649-sup-00001-misc_information.pdf
950,950,T,138-42-1,C1=CC(=CC=C1[N+](=O)[O-])S(=O)(=O)O,138-42-1,4-nitrobenzenesulfonic acid,MeCN,CC#N,6.3,Ejoc202001649-sup-00001-misc_information.pdf
951,951,,1431711-91-9,no matches,-,-,MeCN,CC#N,6.22,Ejoc202001649-sup-00001-misc_information.pdf
952,952,,46764-49-2,no SMILES,654055-01-3,"2-(2,4-dihydroxyphenyl)-3,5,7-trihydroxychromen-4-one;dihydrate",MeCN,CC#N,6.16,Ejoc202001649-sup-00001-misc_information.pdf
953,953,,1171188-96-7,CC(C)(C)OC(=O)N1CCCC(C1)C2=CC=C(C=C2)N,-,tert-butyl 3-(4-aminophenyl)piperidine-1-carboxylate,MeCN,CC#N,6.16,Ejoc202001649-sup-00001-misc_information.pdf
954,954,,500721-87-9,CC(C)(C)OC(=O)NC(CC(=O)O)C1=CC(=CC=C1)F,284493-59-0,3-(3-fluorophenyl)-3-[(2-methylpropan-2-yl)oxycarbonylamino]propanoic acid,MeCN,CC#N,6.05,Ejoc202001649-sup-00001-misc_information.pdf
955,955,,1207878-53-2,no SMILES,654055-01-3,"2-(2,4-dihydroxyphenyl)-3,5,7-trihydroxychromen-4-one;dihydrate",MeCN,CC#N,6.01,Ejoc202001649-sup-00001-misc_information.pdf
956,956,,215395-07-6,C1=CN=C(C(=C1C(=O)O)C(=O)O)Cl,215306-02-8,"2-chloropyridine-3,4-dicarboxylic acid",MeCN,CC#N,5.82,Ejoc202001649-sup-00001-misc_information.pdf
957,957,,500721-89-1,C1(=O)NC2=NC(=O)NC3=NC(=O)N=C(N23)N1,1502-46-1,"2,4,6,8,10,12,13-heptazatricyclo[7.3.1.05,13]trideca-1,4,8-triene-3,7,11-trione",MeCN,CC#N,5.82,Ejoc202001649-sup-00001-misc_information.pdf
958,958,,500721-91-5,no matches,-,-,MeCN,CC#N,5.68,Ejoc202001649-sup-00001-misc_information.pdf
959,959,,2306317-72-4,no matches,-,-,MeCN,CC#N,5.64,Ejoc202001649-sup-00001-misc_information.pdf
960,960,,174788-87-5,CCOC(=O)C1=CC2=C(O1)C=CC(=C2)N,174775-48-5,ethyl 5-amino-1-benzofuran-2-carboxylate,MeCN,CC#N,5.52,Ejoc202001649-sup-00001-misc_information.pdf
961,961,T,10035-10-6,Br,10035-10-6,bromane,MeCN,CC#N,5.4,Ejoc202001649-sup-00001-misc_information.pdf
962,962,,500721-93-7,CC1(C2=CC=CC=C2C3=C1C=C(C=C3)NC4=CC5=C(C=C4)C6=CC=CC=C6C5(C)C)C,500717-23-7,"N-(9,9-dimethylfluoren-2-yl)-9,9-dimethylfluoren-2-amine",MeCN,CC#N,5.29,Ejoc202001649-sup-00001-misc_information.pdf
963,963,,882492-01-5,no SMILES,654055-01-3,"2-(2,4-dihydroxyphenyl)-3,5,7-trihydroxychromen-4-one;dihydrate",MeCN,CC#N,5.22,Ejoc202001649-sup-00001-misc_information.pdf
964,964,,500721-95-9,CC1(CCC2C(CC(OC2C1)C3CCCCC3)C4CCCCC4)C,87299-55-6,"2,4-dicyclohexyl-7,7-dimethyl-2,3,4,4a,5,6,8,8a-octahydrochromene",MeCN,CC#N,5.2,Ejoc202001649-sup-00001-misc_information.pdf