,checking,solute,solute SMILES,computed CAS,computed IUPAC,solvent,solvent SMILES,pka,ref
652,T,4-H-C6F4-CH(CN)2,C1=C(C(=C(C(=C1F)F)C(C#N)C#N)F)F,55810-63-4,"2-(2,3,5,6-tetrafluorophenyl)propanedinitrile",MeCN,CC#N,12.98,pKa_values_of_acids_in_acetonitrile.pdf
653,,[Ph]-BPA,no matches,-,-,MeCN,CC#N,12.73,pKa_values_of_acids_in_acetonitrile.pdf
654,,3-CF3-4-NO2-Ph-CACC-Br4-benzoic acid,no matches,-,-,MeCN,CC#N,12.69,pKa_values_of_acids_in_acetonitrile.pdf
655,,[4-F-C6H4]-BPA,no matches,-,-,MeCN,CC#N,12.46,pKa_values_of_acids_in_acetonitrile.pdf
656,,"3,5-(CF3)2-Ph-CACC-Br4-benzoic acid",no matches,-,-,MeCN,CC#N,12.4,pKa_values_of_acids_in_acetonitrile.pdf
657,,2-C10F7-CH(CN)2,no matches,-,-,MeCN,CC#N,12.23,pKa_values_of_acids_in_acetonitrile.pdf
658,T,Tos2NH,CC1=CC=C(C=C1)S(=O)(=O)NS(=O)(=O)C2=CC=C(C=C2)C,3695-00-9,4-methyl-N-(4-methylphenyl)sulfonylbenzenesulfonamide,MeCN,CC#N,11.97,pKa_values_of_acids_in_acetonitrile.pdf
659,,C6H5SO2NHSO2Me,no matches,-,-,MeCN,CC#N,11.89,pKa_values_of_acids_in_acetonitrile.pdf
660,,"RS-3,5-(CF3)2-Ph-CXCC-Br4-benzoic acid",no matches,-,-,MeCN,CC#N,11.8,pKa_values_of_acids_in_acetonitrile.pdf
661,T,4-NO2-C6H4CH(CN)2,C1=CC(=CC=C1C(C#N)C#N)[N+](=O)[O-],7077-65-8,2-(4-nitrophenyl)propanedinitrile,MeCN,CC#N,11.61,pKa_values_of_acids_in_acetonitrile.pdf
662,,4-MeO-C6H4-CO-NH-Tf,no matches,-,-,MeCN,CC#N,11.6,pKa_values_of_acids_in_acetonitrile.pdf
663,,C6F5NHTf,no matches,-,-,MeCN,CC#N,11.48,pKa_values_of_acids_in_acetonitrile.pdf
664,,4-Me-C6H4-CO-NH-Tf,no matches,-,-,MeCN,CC#N,11.46,pKa_values_of_acids_in_acetonitrile.pdf
665,,(C6H5-SO2)2NH,no matches,-,-,MeCN,CC#N,11.35,pKa_values_of_acids_in_acetonitrile.pdf
666,,4-MeO-C6H4-SO2-NH-SO2-C6H4-4-Cl,no matches,-,-,MeCN,CC#N,11.29,pKa_values_of_acids_in_acetonitrile.pdf
667,,C6F5NHSO2C4F9,no matches,-,-,MeCN,CC#N,11.25,pKa_values_of_acids_in_acetonitrile.pdf
668,,C6F5NHSO2C8F17,no matches,-,-,MeCN,CC#N,11.19,pKa_values_of_acids_in_acetonitrile.pdf
669,,4-Cl-C6H4-SO2-NH-Tos,no matches,-,-,MeCN,CC#N,11.1,pKa_values_of_acids_in_acetonitrile.pdf
670,,C6H5-CO-NH-Tf,no matches,-,-,MeCN,CC#N,11.07,pKa_values_of_acids_in_acetonitrile.pdf
671,T,Picric acid,C1=C(C=C(C(=C1[N+](=O)[O-])O)[N+](=O)[O-])[N+](=O)[O-],88-89-1,"2,4,6-trinitrophenol",MeCN,CC#N,11,pKa_values_of_acids_in_acetonitrile.pdf
672,T,5-nitroBarbituric acid,C1(C(=O)NC(=O)NC1=O)[N+](=O)[O-],480-68-2,"5-nitro-1,3-diazinane-2,4,6-trione",MeCN,CC#N,10.72,pKa_values_of_acids_in_acetonitrile.pdf
673,,4-F-C6H4-CO-NH-Tf,no matches,-,-,MeCN,CC#N,10.65,pKa_values_of_acids_in_acetonitrile.pdf
674,,"(2,4,6-(NO2)3C6H2)2NH",no matches,-,-,MeCN,CC#N,10.54,pKa_values_of_acids_in_acetonitrile.pdf
675,T,pentakis(trifluoromethyl)Phenol,C1(=C(C(=C(C(=C1C(F)(F)F)C(F)(F)F)O)C(F)(F)F)C(F)(F)F)C(F)(F)F,723294-91-5,"2,3,4,5,6-pentakis(trifluoromethyl)phenol",MeCN,CC#N,10.46,pKa_values_of_acids_in_acetonitrile.pdf
676,T,"2,3,4,6-(CF3)4-C6H-CH(CN)2",FC(F)(F)C1=C(C(C#N)C#N)C(=C(C(=C1)C(F)(F)F)C(F)(F)F)C(F)(F)F,1018330-49-8,"2-(2,3,4,6-tetrakis(trifluoromethyl)phenyl)malononitrile",MeCN,CC#N,10.42,pKa_values_of_acids_in_acetonitrile.pdf
677,,4-Cl-C6H4-CO-NH-Tf,no matches,-,-,MeCN,CC#N,10.35,pKa_values_of_acids_in_acetonitrile.pdf
678,T,HCl,Cl,7647-01-0,chlorane,MeCN,CC#N,10.3,pKa_values_of_acids_in_acetonitrile.pdf
679,,4-MeO-C6H4-SO2-NH-SO2-C6H4-4-NO2,no matches,-,-,MeCN,CC#N,10.29,pKa_values_of_acids_in_acetonitrile.pdf
680,T,(4-Cl-C6H4-SO2)2NH,C1=CC(=CC=C1S(=O)(=O)NS(=O)(=O)C2=CC=C(C=C2)Cl)Cl,2725-55-5,4-chloro-N-(4-chlorophenyl)sulfonylbenzenesulfonamide,MeCN,CC#N,10.2,pKa_values_of_acids_in_acetonitrile.pdf
681,T,4-CF3-C6F4CH(CN)2,C(#N)C(C#N)C1=C(C(=C(C(=C1F)F)C(F)(F)F)F)F,55852-24-9,"2-[2,3,5,6-tetrafluoro-4-(trifluoromethyl)phenyl]propanedinitrile",MeCN,CC#N,10.19,pKa_values_of_acids_in_acetonitrile.pdf
682,T,pentakis(trifluoromethyl)Thiophenol,C1(=C(C(=C(C(=C1C(F)(F)F)C(F)(F)F)S)C(F)(F)F)C(F)(F)F)C(F)(F)F,-,"2,3,4,5,6-pentakis(trifluoromethyl)benzenethiol",MeCN,CC#N,10.12,pKa_values_of_acids_in_acetonitrile.pdf
683,,3-NO2-C6H4-SO2-NH-Tos,no matches,-,-,MeCN,CC#N,10.07,pKa_values_of_acids_in_acetonitrile.pdf
684,T,4-NO2-C6H4SO2NHTos,CC1=CC=C(C=C1)S(=O)(=O)NS(=O)(=O)C2=CC=C(C=C2)[N+](=O)[O-],100724-78-5,4-methyl-N-(4-nitrophenyl)sulfonylbenzenesulfonamide,MeCN,CC#N,10.04,pKa_values_of_acids_in_acetonitrile.pdf
685,T,CH3SO3H,CS(=O)(=O)O,75-75-2,methanesulfonic acid,MeCN,CC#N,9.97,pKa_values_of_acids_in_acetonitrile.pdf
686,,4-Cl-3-NO2-C6H3-SO2-NH-Tos,no matches,-,-,MeCN,CC#N,9.68,pKa_values_of_acids_in_acetonitrile.pdf
687,,"2,4-(NO2)2-C6H3-CH(CN)2",no matches,-,-,MeCN,CC#N,9.58,pKa_values_of_acids_in_acetonitrile.pdf
688,,4-NO2-C6H4CONHTf,no matches,-,-,MeCN,CC#N,9.49,pKa_values_of_acids_in_acetonitrile.pdf
689,T,4-NO2-C6H4SO2NHSO2C6H4-4-Cl,C1=CC(=CC=C1[N+](=O)[O-])S(=O)(=O)NS(=O)(=O)C2=CC=C(C=C2)Cl,95468-16-9,N-(4-chlorophenyl)sulfonyl-4-nitrobenzenesulfonamide,MeCN,CC#N,9.17,pKa_values_of_acids_in_acetonitrile.pdf
690,,"2,3,4,5,6-(CF3)5-C6-CH(CN)2",no matches,-,-,MeCN,CC#N,8.88,pKa_values_of_acids_in_acetonitrile.pdf
691,,"[2,3,4,5,6-(CF3)5-C6]2NH",no matches,-,-,MeCN,CC#N,8.76,pKa_values_of_acids_in_acetonitrile.pdf
692,,4-Cl-3-NO2-C6H3-SO2-NH-SO2-C6H4-4-Cl,no matches,-,-,MeCN,CC#N,8.75,pKa_values_of_acids_in_acetonitrile.pdf
693,T,TosOH,CC1=CC=C(C=C1)S(=O)(=O)O,104-15-4,4-methylbenzenesulfonic acid,MeCN,CC#N,8.5,pKa_values_of_acids_in_acetonitrile.pdf
694,T,PhSO3H,C1=CC=C(C=C1)S(=O)(=O)O,98-11-3,benzenesulfonic acid,MeCN,CC#N,8.2,pKa_values_of_acids_in_acetonitrile.pdf
695,T,(3-NO2-C6H4-SO2)2NH,C1=CC(=CC(=C1)S(=O)(=O)NS(=O)(=O)C2=CC=CC(=C2)[N+](=O)[O-])[N+](=O)[O-],116082-80-5,3-nitro-N-(3-nitrophenyl)sulfonylbenzenesulfonamide,MeCN,CC#N,8.16,pKa_values_of_acids_in_acetonitrile.pdf
696,T,(4-NO2-C6H4-SO2)2NH,C1=CC(=CC=C1[N+](=O)[O-])S(=O)(=O)NS(=O)(=O)C2=CC=C(C=C2)[N+](=O)[O-],7/6/09,4-nitro-N-(4-nitrophenyl)sulfonylbenzenesulfonamide,MeCN,CC#N,8.15,pKa_values_of_acids_in_acetonitrile.pdf
697,,"2,4,6-(SO2OCH2CF2CF2H)3-Phenol",no matches,-,-,MeCN,CC#N,8.14,pKa_values_of_acids_in_acetonitrile.pdf
698,,"2,4,6-(SO2OCH2CF3)3-Phenol",no matches,-,-,MeCN,CC#N,7.94,pKa_values_of_acids_in_acetonitrile.pdf
699,T,1-C10H7-SO3H,C1=CC=C2C(=C1)C=CC=C2S(=O)(=O)O,85-47-2,naphthalene-1-sulfonic acid,MeCN,CC#N,7.9,pKa_values_of_acids_in_acetonitrile.pdf
700,,3-NO2-C6H4-SO2-NH-SO2-C6H3-3-NO2-4-Cl,no matches,-,-,MeCN,CC#N,7.84,pKa_values_of_acids_in_acetonitrile.pdf
701,,4-NO2-C6H4SO2NHSO2C6H3-3-NO2-4-Cl,no matches,-,-,MeCN,CC#N,7.82,pKa_values_of_acids_in_acetonitrile.pdf
702,T,C6H5-CHTf2,C1=CC=C(C=C1)C(S(=O)(=O)C(F)(F)F)S(=O)(=O)C(F)(F)F,40906-82-9,bis(trifluoromethylsulfonyl)methylbenzene,MeCN,CC#N,7.73,pKa_values_of_acids_in_acetonitrile.pdf
703,T,H2SO4,OS(=O)(=O)O,7664-93-9,sulfuric acid,MeCN,CC#N,7.6,pKa_values_of_acids_in_acetonitrile.pdf
704,T,C6F5SO2NHSO2C6H4-4-Cl,FC1=C(F)C(=C(C(=C1F)F)[S](=O)(=O)N[S](=O)(=O)C2=CC=C(Cl)C=C2)F,1171188-85-4,"N-((4-chlorophenyl)sulfonyl)-2,3,4,5,6-pentafluorobenzenesulfonamide",MeCN,CC#N,7.55,pKa_values_of_acids_in_acetonitrile.pdf
705,,(4-Cl-3-NO2-C6H3-SO2)2NH,no matches,-,-,MeCN,CC#N,7.47,pKa_values_of_acids_in_acetonitrile.pdf
706,T,Me-TCNP,CC(=C(C#N)C#N)C(C#N)C#N,24943-63-3,"2-methylprop-1-ene-1,1,3,3-tetracarbonitrile",MeCN,CC#N,7.36,pKa_values_of_acids_in_acetonitrile.pdf
707,,4-Cl-C6H4-SO3H,no matches,-,-,MeCN,CC#N,7,pKa_values_of_acids_in_acetonitrile.pdf
708,,[4-MeO-C6H4][CF3]-NTPA-[H8],no matches,-,-,MeCN,CC#N,6.83,pKa_values_of_acids_in_acetonitrile.pdf
709,,[Ph][C8F17]-NTPA-[H8],no matches,-,-,MeCN,CC#N,6.69,pKa_values_of_acids_in_acetonitrile.pdf
710,,[Ph][CF3]-NTPA-[H8],no matches,-,-,MeCN,CC#N,6.68,pKa_values_of_acids_in_acetonitrile.pdf
711,T,C6F5SO2NHSO2C6H4-3-NO2,[O-][N+](=O)C1=CC(=CC=C1)[S](=O)(=O)N[S](=O)(=O)C2=C(F)C(=C(F)C(=C2F)F)F,1171188-92-3,"2,3,4,5,6-pentafluoro-N-((3-nitrophenyl)sulfonyl)benzenesulfonamide",MeCN,CC#N,6.68,pKa_values_of_acids_in_acetonitrile.pdf
712,,[Ph][C4F9]-NTPA-[H8],no matches,-,-,MeCN,CC#N,6.65,pKa_values_of_acids_in_acetonitrile.pdf
713,T,C6F5SO2NHSO2C6H4-4-NO2,[O-][N+](=O)C1=CC=C(C=C1)[S](=O)(=O)N[S](=O)(=O)C2=C(F)C(=C(F)C(=C2F)F)F,1171188-93-4,"2,3,4,5,6-pentafluoro-N-((4-nitrophenyl)sulfonyl)benzenesulfonamide",MeCN,CC#N,6.6,pKa_values_of_acids_in_acetonitrile.pdf
714,,3-NO2-C6H4-SO3H,no matches,-,-,MeCN,CC#N,6.4,pKa_values_of_acids_in_acetonitrile.pdf
715,,[4-MeO-C6H4][CF3]-NTPA,no matches,-,-,MeCN,CC#N,6.35,pKa_values_of_acids_in_acetonitrile.pdf
716,,[Ph][CF3]-NTPA,no matches,-,-,MeCN,CC#N,6.33,pKa_values_of_acids_in_acetonitrile.pdf
717,T,4-NO2-C6H4SO3H,C1=CC(=CC=C1[N+](=O)[O-])S(=O)(=O)O,138-42-1,4-nitrobenzenesulfonic acid,MeCN,CC#N,6.3,pKa_values_of_acids_in_acetonitrile.pdf
718,,[4-F-C6H4][CF3]-NTPA-[H8],no matches,-,-,MeCN,CC#N,6.22,pKa_values_of_acids_in_acetonitrile.pdf
719,,3-NO2-C6H4-SO2-CH(CN)2,no matches,-,-,MeCN,CC#N,6.16,pKa_values_of_acids_in_acetonitrile.pdf
720,T,C6F5SO2NHSO2C6H3-3-NO2-4Cl,[O-][N+](=O)C1=C(Cl)C=CC(=C1)[S](=O)(=O)N[S](=O)(=O)C2=C(F)C(=C(F)C(=C2F)F)F,1171188-96-7,"N-((4-chloro-3-nitrophenyl)sulfonyl)-2,3,4,5,6-pentafluorobenzenesulfonamide",MeCN,CC#N,6.16,pKa_values_of_acids_in_acetonitrile.pdf
721,,4-MeO-C6H4-C(=NTf)-NH-Tf,no matches,-,-,MeCN,CC#N,6.05,pKa_values_of_acids_in_acetonitrile.pdf
722,T,4-NO2-C6H4SO2CH(CN)2,[O-][N+](=O)C1=CC=C(C=C1)[S](=O)(=O)C(C#N)C#N,1207878-53-2,2-((4-nitrophenyl)sulfonyl)malononitrile,MeCN,CC#N,6.01,pKa_values_of_acids_in_acetonitrile.pdf
723,T,Tos-NH-Tf,CC1=CC=C(C=C1)S(=O)(=O)NS(=O)(=O)C(F)(F)F,215395-07-6,4-methyl-N-(trifluoromethylsulfonyl)benzenesulfonamide,MeCN,CC#N,5.82,pKa_values_of_acids_in_acetonitrile.pdf
724,T,4-Me-C6H4-C(=NTf)-NH-Tf,CC1=CC=C(C=C1)C(N[S](=O)(=O)C(F)(F)F)=N[S](=O)(=O)C(F)(F)F,500721-89-1,"4-methyl-N,N'-bis(trifluoromethylsulfonyl)benzenecarboximidamide",MeCN,CC#N,5.82,pKa_values_of_acids_in_acetonitrile.pdf
725,T,C6H5-C(=NTf)-NH-Tf,C1=CC=C(C=C1)C(=NS(=O)(=O)C(F)(F)F)NS(=O)(=O)C(F)(F)F,500721-91-5,"N,N'-bis(trifluoromethylsulfonyl)benzenecarboximidamide",MeCN,CC#N,5.68,pKa_values_of_acids_in_acetonitrile.pdf
726,T,H-TCNP,C(=C(C#N)C#N)C(C#N)C#N,32019-26-4,"prop-1-ene-1,1,3,3-tetracarbonitrile",MeCN,CC#N,5.64,pKa_values_of_acids_in_acetonitrile.pdf
727,,C6H5-SO2-NH-Tf,no matches,-,-,MeCN,CC#N,5.52,pKa_values_of_acids_in_acetonitrile.pdf
728,T,HBr,Br,10035-10-6,bromane,MeCN,CC#N,5.4,pKa_values_of_acids_in_acetonitrile.pdf
729,T,4-F-C6H4C(=NTf)NHTf,FC1=CC=C(C=C1)C(N[S](=O)(=O)C(F)(F)F)=N[S](=O)(=O)C(F)(F)F,500721-93-7,-,MeCN,CC#N,5.29,pKa_values_of_acids_in_acetonitrile.pdf
730,T,"2,4,6-(SO2F)3-Phenol",C1=C(C=C(C(=C1S(=O)(=O)F)O)S(=O)(=O)F)S(=O)(=O)F,882492-01-5,"2-hydroxybenzene-1,3,5-trisulfonyl fluoride",MeCN,CC#N,5.22,pKa_values_of_acids_in_acetonitrile.pdf
731,T,4-Cl-C6H4C(=NTf)NHTf,C1=CC(=CC=C1C(=NS(=O)(=O)C(F)(F)F)NS(=O)(=O)C(F)(F)F)Cl,500721-95-9,"4-chloro-N,N'-bis(trifluoromethylsulfonyl)benzenecarboximidamide",MeCN,CC#N,5.2,pKa_values_of_acids_in_acetonitrile.pdf
732,,(C6F5-SO2)2NH,no matches,-,-,MeCN,CC#N,5.08,pKa_values_of_acids_in_acetonitrile.pdf
733,T,CH(CN)3,C(#N)C(C#N)C#N,454-50-2,methanetricarbonitrile,MeCN,CC#N,5,pKa_values_of_acids_in_acetonitrile.pdf
734,,4-Cl-C6H4-SO2-NH-Tf,no matches,-,-,MeCN,CC#N,4.98,pKa_values_of_acids_in_acetonitrile.pdf
735,,"[3,5-(CF3)2-C6H3]-JINGLE",no matches,-,-,MeCN,CC#N,4.97,pKa_values_of_acids_in_acetonitrile.pdf
736,,4-Cl-C6H4-SO(=NTf)-NH-Tos,no matches,-,-,MeCN,CC#N,4.78,pKa_values_of_acids_in_acetonitrile.pdf
737,T,4-NO2-C6H4C(=NTf)NHTf,C1=CC(=CC=C1C(=NS(=O)(=O)C(F)(F)F)NS(=O)(=O)C(F)(F)F)[N+](=O)[O-],500721-97-1,"4-nitro-N,N'-bis(trifluoromethylsulfonyl)benzenecarboximidamide",MeCN,CC#N,4.63,pKa_values_of_acids_in_acetonitrile.pdf
738,T,"2,4,6-Tf3Phenol",C1=C(C=C(C(=C1S(=O)(=O)C(F)(F)F)O)S(=O)(=O)C(F)(F)F)S(=O)(=O)C(F)(F)F,71571-37-4,"2,4,6-tris(trifluoromethylsulfonyl)phenol",MeCN,CC#N,4.44,pKa_values_of_acids_in_acetonitrile.pdf
739,T,(CN)2C=C(CN)OH,C(#N)C(=C(C#N)O)C#N,27062-39-1,"2-hydroxyethene-1,1,2-tricarbonitrile",MeCN,CC#N,4.36,pKa_values_of_acids_in_acetonitrile.pdf
740,T,4-NO2-C6H4SO2NHTf,C1=CC(=CC=C1[N+](=O)[O-])S(=O)(=O)NS(=O)(=O)C(F)(F)F,174788-91-1,4-nitro-N-(trifluoromethylsulfonyl)benzenesulfonamide,MeCN,CC#N,4.04,pKa_values_of_acids_in_acetonitrile.pdf
741,,4-Cl-C6H4-SO(=NTf)-NH-SO2-C6H4-4-Cl,no matches,-,-,MeCN,CC#N,4,pKa_values_of_acids_in_acetonitrile.pdf
742,,2.4-(NO2)2-C6H3-SO3H,no matches,-,-,MeCN,CC#N,3.96,pKa_values_of_acids_in_acetonitrile.pdf
743,T,"2,3,5-tricyanocyclopentadiene",N#CC1C=C(C#N)C(=C1)C#N,215395-09-8,"cyclopenta-2,5-diene-1,2,4-tricarbonitrile",MeCN,CC#N,3.65,pKa_values_of_acids_in_acetonitrile.pdf
744,,4-Cl-C6H4-SO(=NTf)-NH-SO2-C6H4-4-NO2,no matches,-,-,MeCN,CC#N,3.3,pKa_values_of_acids_in_acetonitrile.pdf
745,T,HI,I,10034-85-2,iodane,MeCN,CC#N,2.8,pKa_values_of_acids_in_acetonitrile.pdf
746,T,120-72-9,C1=CC=C2C(=C1)C=CN2,120-72-9,1H-indole,MeCN,CC#N,32.57,Ejoc202001649-sup-00001-misc_information.pdf
747,,1354970-98-1,no matches,1354970-98-1,-,MeCN,CC#N,30.86,Ejoc202001649-sup-00001-misc_information.pdf
748,T,6960-42-5,C1=CC2=C(C(=C1)[N+](=O)[O-])NC=C2,6960-42-5,7-nitro-1H-indole,MeCN,CC#N,29.99,Ejoc202001649-sup-00001-misc_information.pdf
749,T,608-08-2,CC(=O)OC1=CNC2=CC=CC=C21,608-08-2,1H-indol-3-yl acetate,MeCN,CC#N,29.97,Ejoc202001649-sup-00001-misc_information.pdf
750,T,108-95-2,C1=CC=C(C=C1)O,108-95-2,phenol,MeCN,CC#N,29.2,Ejoc202001649-sup-00001-misc_information.pdf
751,,2128672-84-2,C1=CC(=CC=C1C(=O)NC2=NNC(=S)C=C2)F,2128672-84-2,4-fluoro-N-(6-sulfanylidene-1H-pyridazin-3-yl)benzamide,MeCN,CC#N,28.85,Ejoc202001649-sup-00001-misc_information.pdf
752,T,17823-38-0,C(#N)C1=C(C(=C(C(=C1F)F)N)F)F,17823-38-0,"4-amino-2,3,5,6-tetrafluorobenzonitrile",MeCN,CC#N,28.78,Ejoc202001649-sup-00001-misc_information.pdf
753,T,1018330-43-2,CC1=C(C(=C(C(=C1C(F)(F)F)C(F)(F)F)C(F)(F)F)C(F)(F)F)C(F)(F)F,1018330-43-2,"1-methyl-2,3,4,5,6-pentakis(trifluoromethyl)benzene",MeCN,CC#N,28.77,Ejoc202001649-sup-00001-misc_information.pdf
754,T,6146-52-7,C1=CC2=C(C=CN2)C=C1[N+](=O)[O-],6146-52-7,5-nitro-1H-indole,MeCN,CC#N,28.18,Ejoc202001649-sup-00001-misc_information.pdf
755,T,73482-93-6,FC1=C(F)C(=C(C2C3=C(C=CC=C3)C4=C2C=CC=C4)C(=C1F)F)F,73482-93-6,"9-(2,3,4,5,6-pentafluorophenyl)-9H-fluorene",MeCN,CC#N,28.14,Ejoc202001649-sup-00001-misc_information.pdf
756,T,101-20-2,C1=CC(=CC=C1NC(=O)NC2=CC(=C(C=C2)Cl)Cl)Cl,101-20-2,"1-(4-chlorophenyl)-3-(3,4-dichlorophenyl)urea",MeCN,CC#N,27.95,Ejoc202001649-sup-00001-misc_information.pdf
757,T,4769-97-5,C1=CC2=C(C=CN2)C(=C1)[N+](=O)[O-],4769-97-5,4-nitro-1H-indole,MeCN,CC#N,27.89,Ejoc202001649-sup-00001-misc_information.pdf
758,T,4769-96-4,C1=CC(=CC2=C1C=CN2)[N+](=O)[O-],4769-96-4,6-nitro-1H-indole,MeCN,CC#N,27.79,Ejoc202001649-sup-00001-misc_information.pdf
759,,665011-18-7,no matches,665011-18-7,-,MeCN,CC#N,27.59,Ejoc202001649-sup-00001-misc_information.pdf
760,,2376448-26-7,,,,MeCN,CC#N,27.21,Ejoc202001649-sup-00001-misc_information.pdf
761,T,C6H5-CH2-Tf,C1=CC=C(C=C1)CS(=O)(=O)C(F)(F)F,-,trifluoromethylsulfonylmethylbenzene,MeCN,CC#N,27.19,Ejoc202001649-sup-00001-misc_information.pdf
762,,77758-24-8,no matches,77758-24-8,-,MeCN,CC#N,27.12,Ejoc202001649-sup-00001-misc_information.pdf
763,,130774-57-1,no matches,130774-57-1,-,MeCN,CC#N,27.06,Ejoc202001649-sup-00001-misc_information.pdf
764,T,2408-04-0,C1=CC(=CC=C1CS(=O)(=O)C(F)(F)F)F,2408-04-0,1-fluoro-4-(trifluoromethylsulfonylmethyl)benzene,MeCN,CC#N,27,Ejoc202001649-sup-00001-misc_information.pdf
765,T,58432-62-5,CC1=C(F)C(=C(C(C#N)C2=CC=CC=C2)C(=C1F)F)F,58432-62-5,"2-phenyl-2-(2,3,5,6-tetrafluoro-4-methylphenyl)acetonitrile",MeCN,CC#N,26.98,Ejoc202001649-sup-00001-misc_information.pdf
766,T,70-55-3,CC1=CC=C(C=C1)S(=O)(=O)N,70-55-3,4-methylbenzenesulfonamide,MeCN,CC#N,26.95,Ejoc202001649-sup-00001-misc_information.pdf
767,,Box2CH2,no matches,,-,MeCN,CC#N,26.89,Ejoc202001649-sup-00001-misc_information.pdf
768,,210486-32-1,no matches,210486-32-1,-,MeCN,CC#N,26.87,Ejoc202001649-sup-00001-misc_information.pdf
769,T,98-10-2,C1=CC=C(C=C1)S(=O)(=O)N,98-10-2,benzenesulfonamide,MeCN,CC#N,26.63,Ejoc202001649-sup-00001-misc_information.pdf
770,,1354970-97-0,no SMILES,1354970-97-0,-,MeCN,CC#N,26.58,Ejoc202001649-sup-00001-misc_information.pdf
771,T,98-17-9,C1=CC(=CC(=C1)O)C(F)(F)F,98-17-9,3-(trifluoromethyl)phenol,MeCN,CC#N,26.5,Ejoc202001649-sup-00001-misc_information.pdf
772,T,653-22-5,CC(=O)NC1=C(C(=C(C(=C1F)F)F)F)F,653-22-5,"N-(2,3,4,5,6-pentafluorophenyl)acetamide",MeCN,CC#N,26.45,Ejoc202001649-sup-00001-misc_information.pdf
773,T,39077-43-5,C1=CC=C(C=C1)NC2=C(C(=NC(=C2F)F)F)F,39077-43-5,"2,3,5,6-tetrafluoro-N-phenylpyridin-4-amine",MeCN,CC#N,26.36,Ejoc202001649-sup-00001-misc_information.pdf
774,T,1821-27-8,C1=CC(=CC=C1NC2=CC=C(C=C2)[N+](=O)[O-])[N+](=O)[O-],1821-27-8,4-nitro-N-(4-nitrophenyl)aniline,MeCN,CC#N,26.18,Ejoc202001649-sup-00001-misc_information.pdf
775,,1448617-67-1,CC1=C(C(=NN1)C(F)(F)F)CC2=C(C3=C(S2)N(C(=O)N(C3=O)C)C(C)C)C(=O)N4CC(CO4)(C)O,1448617-67-1,"5-(4-hydroxy-4-methyl-1,2-oxazolidine-2-carbonyl)-3-methyl-6-[[5-methyl-3-(trifluoromethyl)-1H-pyrazol-4-yl]methyl]-1-propan-2-ylthieno[2,3-d]pyrimidine-2,4-dione",MeCN,CC#N,26.18,Ejoc202001649-sup-00001-misc_information.pdf
776,T,402-46-0,C1=CC(=CC=C1F)S(=O)(=O)N,402-46-0,4-fluorobenzenesulfonamide,MeCN,CC#N,26.16,Ejoc202001649-sup-00001-misc_information.pdf
777,T,1945-78-4,C1=CC=C2C(=C1)N=C(S2)CC3=NC4=CC=CC=C4S3,1945-78-4,"2-(1,3-benzothiazol-2-ylmethyl)-1,3-benzothiazole",MeCN,CC#N,26.16,Ejoc202001649-sup-00001-misc_information.pdf
778,T,42238-33-5,FC1=C(F)C(=C(C(C#N)C2=CC=CC=C2)C(=C1F)F)F,42238-33-5,"2-(2,3,4,5,6-pentafluorophenyl)-2-phenylacetonitrile",MeCN,CC#N,26.16,Ejoc202001649-sup-00001-misc_information.pdf
779,T,5457-28-3,C1=CC=C2C(=C1)C(=CN2)C#N,5457-28-3,1H-indole-3-carbonitrile,MeCN,CC#N,26.01,Ejoc202001649-sup-00001-misc_information.pdf
780,T,98-64-6,C1=CC(=CC=C1S(=O)(=O)N)Cl,98-64-6,4-chlorobenzenesulfonamide,MeCN,CC#N,25.85,Ejoc202001649-sup-00001-misc_information.pdf
781,,2408-22-2,,,,MeCN,CC#N,25.62,Ejoc202001649-sup-00001-misc_information.pdf
782,T,402-45-9,C1=CC(=CC=C1C(F)(F)F)O,402-45-9,4-(trifluoromethyl)phenol,MeCN,CC#N,25.5,Ejoc202001649-sup-00001-misc_information.pdf
783,,1449332-70-0,no matches,1449332-70-0,-,MeCN,CC#N,25.47,Ejoc202001649-sup-00001-misc_information.pdf
784,T,830-43-3,C1=CC(=CC=C1C(F)(F)F)S(=O)(=O)N,830-43-3,4-(trifluoromethyl)benzenesulfonamide,MeCN,CC#N,25.24,Ejoc202001649-sup-00001-misc_information.pdf
785,T,672-58-2,C1=CC(=CC(=C1)S(=O)(=O)N)C(F)(F)F,672-58-2,3-(trifluoromethyl)benzenesulfonamide,MeCN,CC#N,25.2,Ejoc202001649-sup-00001-misc_information.pdf
786,T,(4-Me2N-C6F4)(C6F5)NH,CN(C)C1=C(F)C(=C(NC2=C(F)C(=C(F)C(=C2F)F)F)C(=C1F)F)F,80588-34-7,"2,3,5,6-tetrafluoro-N1,N1-dimethyl-N4-(perfluorophenyl)benzene-1,4-diamine",MeCN,CC#N,25.13,Ejoc202001649-sup-00001-misc_information.pdf
787,,1267525-01-8,no matches,1267525-01-8,-,MeCN,CC#N,25.08,Ejoc202001649-sup-00001-misc_information.pdf
788,T,80588-36-9,CC1=C(F)C(=C(NC2=C(F)C(=C(F)C(=C2F)F)F)C(=C1F)F)F,80588-36-9,"2,3,5,6-tetrafluoro-4-methyl-N-(2,3,4,5,6-pentafluorophenyl)aniline",MeCN,CC#N,24.96,Ejoc202001649-sup-00001-misc_information.pdf
789,T,444-30-4,C1=CC=C(C(=C1)C(F)(F)F)O,444-30-4,2-(trifluoromethyl)phenol,MeCN,CC#N,24.9,Ejoc202001649-sup-00001-misc_information.pdf
790,,587-90-6,C1=CC(=CC=C1NC(=O)NC2=CC=C(C=C2)[N+](=O)[O-])[N+](=O)[O-],587-90-6,-,MeCN,CC#N,24.71,Ejoc202001649-sup-00001-misc_information.pdf
791,T,121-52-8,C1=CC(=CC(=C1)S(=O)(=O)N)[N+](=O)[O-],121-52-8,3-nitrobenzenesulfonamide,MeCN,CC#N,24.63,Ejoc202001649-sup-00001-misc_information.pdf
792,T,58956-76-6,C1(=C(C(=C(C(=C1C(F)(F)F)C(F)(F)F)N)C(F)(F)F)C(F)(F)F)C(F)(F)F,58956-76-6,"2,3,4,5,6-pentakis(trifluoromethyl)aniline",MeCN,CC#N,24.57,Ejoc202001649-sup-00001-misc_information.pdf
793,T,6325-93-5,C1=CC(=CC=C1[N+](=O)[O-])S(=O)(=O)N,6325-93-5,4-nitrobenzenesulfonamide,MeCN,CC#N,24.57,Ejoc202001649-sup-00001-misc_information.pdf
794,,1449332-69-7,C1=CN=CC=C1C=NOC=O,1449332-69-7,-,MeCN,CC#N,24.51,Ejoc202001649-sup-00001-misc_information.pdf