,solute,solute SMILES,computed CAS,computed IUPAC,solvent,solvent SMILES,pka,ref
327,Acridine,C1=CC=C2C(=C1)C=C3C=CC=CC3=[NH+]2,-,acridin-10-ium,MeCN,CC#N,12.67,pKa_values_of_nitrogen_heterocycles.pdf
382,Acridine,C1=CC=C2C(=C1)C=C3C=CC=CC3=[NH+]2,-,acridin-10-ium,H2O,O,5.62,pKa_values_of_nitrogen_heterocycles.pdf
1206,260-94-6,C1=CC=C2C(=C1)C=C3C=CC=CC3=[NH+]2,-,acridin-10-ium,H2O,O,5.62,Bases_pKa_values_MeCN_DMSO_THF_Water.pdf
1339,260-94-6,C1=CC=C2C(=C1)C=C3C=CC=CC3=[NH+]2,-,acridin-10-ium,MeCN,CC#N,12.66,Bases_pKa_values_MeCN_DMSO_THF_Water.pdf
338,"2,2'-Biquinoline",C1=CC=C2C(=C1)C=CC(=N2)C3=[NH+]C4=CC=CC=C4C=C3,,,MeCN,CC#N,11.28,pKa_values_of_nitrogen_heterocycles.pdf
390,"2,2'-Biquinoline",C1=CC=C2C(=C1)C=CC(=N2)C3=[NH+]C4=CC=CC=C4C=C3,,,H2O,O,3.66,pKa_values_of_nitrogen_heterocycles.pdf
1204,119-91-5,C1=CC=C2C(=C1)C=CC(=N2)C3=[NH+]C4=CC=CC=C4C=C3,-,-,H2O,O,3.66,Bases_pKa_values_MeCN_DMSO_THF_Water.pdf
1337,119-91-5,C1=CC=C2C(=C1)C=CC(=N2)C3=[NH+]C4=CC=CC=C4C=C3,,,MeCN,CC#N,11.28,Bases_pKa_values_MeCN_DMSO_THF_Water.pdf
332,Quinoline,C1=CC=C2C(=C1)C=CC=[NH+]2,-,quinolin-1-ium,MeCN,CC#N,11.96,pKa_values_of_nitrogen_heterocycles.pdf
387,Quinoline,C1=CC=C2C(=C1)C=CC=[NH+]2,-,quinolin-1-ium,H2O,O,4.93,pKa_values_of_nitrogen_heterocycles.pdf
1203,91-22-5,C1=CC=C2C(=C1)C=CC=[NH+]2,-,quinolin-1-ium,H2O,O,4.93,Bases_pKa_values_MeCN_DMSO_THF_Water.pdf
1336,91-22-5,C1=CC=C2C(=C1)C=CC=[NH+]2,-,quinolin-1-ium,MeCN,CC#N,11.97,Bases_pKa_values_MeCN_DMSO_THF_Water.pdf
345,1-Naphthylamine,C1=CC=C2C(=C1)C=CC=C2[NH3+],70450-98-5,naphthalen-1-ylazanium,MeCN,CC#N,9.77,pKa_values_of_nitrogen_heterocycles.pdf
58,85-47-2,C1=CC=C2C(=C1)C=CC=C2S(=O)(=O)O,85-47-2,naphthalene-1-sulfonic acid,MeCN,CC#N,7.89,MeCN_Acids_COSMO-RS_2008_Table.pdf
428,1-Naphthalenesulfonic acid,C1=CC=C2C(=C1)C=CC=C2S(=O)(=O)O,85-47-2,naphthalene-1-sulfonic acid,MeCN,CC#N,7.89,DCE_2011_pKa_Table_MeCN.pdf
699,1-C10H7-SO3H,C1=CC=C2C(=C1)C=CC=C2S(=O)(=O)O,85-47-2,naphthalene-1-sulfonic acid,MeCN,CC#N,7.9,pKa_values_of_acids_in_acetonitrile.pdf
928,85-47-2,C1=CC=C2C(=C1)C=CC=C2S(=O)(=O)O,85-47-2,naphthalene-1-sulfonic acid,MeCN,CC#N,7.9,Ejoc202001649-sup-00001-misc_information.pdf
1520,1-C10H7SO3H,C1=CC=C2C(=C1)C=CC=C2S(=O)(=O)O,85-47-2,naphthalene-1-sulfonic acid,MeCN,CC#N,7.89,leito_acids
339,"7,8-Benzoquinoline",C1=CC=C2C(=C1)C=CC3=C2[NH+]=CC=C3,,benzo[h]quinolin-1-ium,MeCN,CC#N,10.84,pKa_values_of_nitrogen_heterocycles.pdf
391,"7,8-Benzoquinoline",C1=CC=C2C(=C1)C=CC3=C2[NH+]=CC=C3,,benzo[h]quinolin-1-ium,H2O,O,4.25,pKa_values_of_nitrogen_heterocycles.pdf
333,"5,6-Benzoquinoline",C1=CC=C2C(=C1)C=CC3=C2C=CC=[NH+]3,,benzo[f]quinolin-4-ium,MeCN,CC#N,11.96,pKa_values_of_nitrogen_heterocycles.pdf
388,"5,6-Benzoquinoline",C1=CC=C2C(=C1)C=CC3=C2C=CC=[NH+]3,,benzo[f]quinolin-4-ium,H2O,O,5.15,pKa_values_of_nitrogen_heterocycles.pdf
746,120-72-9,C1=CC=C2C(=C1)C=CN2,120-72-9,1H-indole,MeCN,CC#N,32.57,Ejoc202001649-sup-00001-misc_information.pdf
975,120-72-9,C1=CC=C2C(=C1)C=CN2,120-72-9,1H-indole,H2O,O,16.97,Ejoc202001649-sup-00001-misc_information.pdf
1022,120-72-9,C1=CC=C2C(=C1)C=CN2,120-72-9,1H-indole,DMSO,CS(=O)C,20.95,Ejoc202001649-sup-00001-misc_information.pdf
1138,120-72-9,C1=CC=C2C(=C1)C=CN2,120-72-9,1H-indole,DMF,CN(C)C=O,21.65,Ejoc202001649-sup-00001-misc_information.pdf
777,1945-78-4,C1=CC=C2C(=C1)N=C(S2)CC3=NC4=CC=CC=C4S3,1945-78-4,"2-(1,3-benzothiazol-2-ylmethyl)-1,3-benzothiazole",MeCN,CC#N,26.16,Ejoc202001649-sup-00001-misc_information.pdf
329,Thiabendazole,C1=CC=C2C(=C1)NC(=[NH+]2)C3=CSC=N3,,"4-(1H-benzimidazol-3-ium-2-yl)-1,3-thiazole",MeCN,CC#N,12.42,pKa_values_of_nitrogen_heterocycles.pdf
384,Thiabendazole,C1=CC=C2C(=C1)NC(=[NH+]2)C3=CSC=N3,,"4-(1H-benzimidazol-3-ium-2-yl)-1,3-thiazole",H2O,O,4.64,pKa_values_of_nitrogen_heterocycles.pdf
324,Benzimidazole,C1=CC=C2C(=C1)NC=[NH+]2,-,1H-benzimidazol-3-ium,MeCN,CC#N,13.52,pKa_values_of_nitrogen_heterocycles.pdf
380,Benzimidazole,C1=CC=C2C(=C1)NC=[NH+]2,-,1H-benzimidazol-3-ium,H2O,O,5.56,pKa_values_of_nitrogen_heterocycles.pdf
1209,51-17-2,C1=CC=C2C(=C1)NC=[NH+]2,-,1H-benzimidazol-3-ium,H2O,O,5.56,Bases_pKa_values_MeCN_DMSO_THF_Water.pdf
1272,51-17-2,C1=CC=C2C(=C1)NC=[NH+]2,-,1H-benzimidazol-3-ium,DMSO,CS(=O)C,4.36,Bases_pKa_values_MeCN_DMSO_THF_Water.pdf
1342,51-17-2,C1=CC=C2C(=C1)NC=[NH+]2,-,1H-benzimidazol-3-ium,MeCN,CC#N,13.54,Bases_pKa_values_MeCN_DMSO_THF_Water.pdf
129,"1,3-Dinitrophenoxazine",C1=CC=C2C(=C1)NC3=C(C=C(C=C3O2)[N+](=O)[O-])[N+](=O)[O-],26103-32-2,"1,3-dinitro-10H-phenoxazine",MeCN,CC#N,22.4,MeCN_Acids_COSMO-RS_2008_Table.pdf
132,1-Nitro-10H-phenoxazine,C1=CC=C2C(=C1)NC3=C(C=CC=C3O2)[N+](=O)[O-],26103-27-5,1-nitro-10H-phenoxazine,MeCN,CC#N,28.4,MeCN_Acids_COSMO-RS_2008_Table.pdf
134,3-Nitrophenoxazine,C1=CC=C2C(=C1)NC3=C(O2)C=C(C=C3)[N+](=O)[O-],-,3-nitro-10H-phenoxazine,MeCN,CC#N,25.7,MeCN_Acids_COSMO-RS_2008_Table.pdf
326,Isoquinoline,C1=CC=C2C=[NH+]C=CC2=C1,-,isoquinolin-2-ium,MeCN,CC#N,12.69,pKa_values_of_nitrogen_heterocycles.pdf
381,Isoquinoline,C1=CC=C2C=[NH+]C=CC2=C1,-,isoquinolin-2-ium,H2O,O,5.46,pKa_values_of_nitrogen_heterocycles.pdf
1205,119-65-3,C1=CC=C2C=[NH+]C=CC2=C1,-,isoquinolin-2-ium,H2O,O,5.46,Bases_pKa_values_MeCN_DMSO_THF_Water.pdf
1338,119-65-3,C1=CC=C2C=[NH+]C=CC2=C1,-,isoquinolin-2-ium,MeCN,CC#N,12.68,Bases_pKa_values_MeCN_DMSO_THF_Water.pdf
336,Phthalazine,C1=CC=C2C=N[NH+]=CC2=C1,,phthalazin-3-ium,MeCN,CC#N,11.55,pKa_values_of_nitrogen_heterocycles.pdf
389,Phthalazine,C1=CC=C2C=N[NH+]=CC2=C1,,phthalazin-3-ium,H2O,O,3.47,pKa_values_of_nitrogen_heterocycles.pdf
33,205-94-7,C1=CC=C2C3=C4C(C2=C1)C5=CC=CC=C5C4=CC=C3,205-94-7,fluoradene,MeCN,CC#N,23.9,MeCN_Acids_COSMO-RS_2008_Table.pdf
572,Fluoradene,C1=CC=C2C3=C4C(C2=C1)C5=CC=CC=C5C4=CC=C3,205-94-7,fluoradene,MeCN,CC#N,23.92,pKa_values_of_acids_in_acetonitrile.pdf
802,205-94-7,C1=CC=C2C3=C4C(C2=C1)C5=CC=CC=C5C4=CC=C3,205-94-7,fluoradene,MeCN,CC#N,23.92,Ejoc202001649-sup-00001-misc_information.pdf
1049,205-94-7,C1=CC=C2C3=C4C(C2=C1)C5=CC=CC=C5C4=CC=C3,205-94-7,fluoradene,DMSO,CS(=O)C,10.5,Ejoc202001649-sup-00001-misc_information.pdf
1435,Fluoradene,C1=CC=C2C3=C4C(C2=C1)C5=CC=CC=C5C4=CC=C3,205-94-7,fluoradene,MeCN,CC#N,23.9,leito_acids
343,Pyridazine,C1=CC=N[NH+]=C1,-,pyridazin-1-ium,MeCN,CC#N,10.07,pKa_values_of_nitrogen_heterocycles.pdf
393,Pyridazine,C1=CC=N[NH+]=C1,-,pyridazin-1-ium,H2O,O,2.33,pKa_values_of_nitrogen_heterocycles.pdf
1214,289-80-5,C1=CC=N[NH+]=C1,-,pyridazin-1-ium,H2O,O,2.33,Bases_pKa_values_MeCN_DMSO_THF_Water.pdf
1275,289-80-5,C1=CC=N[NH+]=C1,-,pyridazin-1-ium,DMSO,CS(=O)C,1.8,Bases_pKa_values_MeCN_DMSO_THF_Water.pdf
1347,289-80-5,C1=CC=N[NH+]=C1,-,pyridazin-1-ium,MeCN,CC#N,10.06,Bases_pKa_values_MeCN_DMSO_THF_Water.pdf
1406,289-80-5,C1=CC=N[NH+]=C1,-,pyridazin-1-ium,THF,C1CCOC1,3.7,Bases_pKa_values_MeCN_DMSO_THF_Water.pdf
361,Benzotriazole,C1=CC2=[NH+]NN=C2C=C1,-,2H-benzotriazol-1-ium,MeCN,CC#N,6.88,pKa_values_of_nitrogen_heterocycles.pdf
402,Benzotriazole,C1=CC2=[NH+]NN=C2C=C1,-,2H-benzotriazol-1-ium,H2O,O,0.42,pKa_values_of_nitrogen_heterocycles.pdf
1211,95-14-7,C1=CC2=[NH+]NN=C2C=C1,-,2H-benzotriazol-1-ium,H2O,O,0.42,Bases_pKa_values_MeCN_DMSO_THF_Water.pdf
1344,95-14-7,C1=CC2=[NH+]NN=C2C=C1,-,2H-benzotriazol-1-ium,MeCN,CC#N,6.89,Bases_pKa_values_MeCN_DMSO_THF_Water.pdf
519,7-nitroIndole,C1=CC2=C(C(=C1)[N+](=O)[O-])NC=C2,6960-42-5,7-nitro-1H-indole,MeCN,CC#N,29.99,pKa_values_of_acids_in_acetonitrile.pdf
748,6960-42-5,C1=CC2=C(C(=C1)[N+](=O)[O-])NC=C2,6960-42-5,7-nitro-1H-indole,MeCN,CC#N,29.99,Ejoc202001649-sup-00001-misc_information.pdf
1191,479-27-6,C1=CC2=C(C(=C1)[NH3+])C(=CC=C2)N,-,(8-aminonaphthalen-1-yl)azanium,H2O,O,4.61,Bases_pKa_values_MeCN_DMSO_THF_Water.pdf
1323,479-27-6,C1=CC2=C(C(=C1)[NH3+])C(=CC=C2)N,-,(8-aminonaphthalen-1-yl)azanium,MeCN,CC#N,10.99,Bases_pKa_values_MeCN_DMSO_THF_Water.pdf
1391,479-27-6,C1=CC2=C(C(=C1)[NH3+])C(=CC=C2)N,-,(8-aminonaphthalen-1-yl)azanium,THF,C1CCOC1,5.4,Bases_pKa_values_MeCN_DMSO_THF_Water.pdf
161,"1,8-Naphthalicacid",C1=CC2=C(C(=C1)C(=O)O)C(=CC=C2)C(=O)O,518-05-8,"naphthalene-1,8-dicarboxylic acid",MeCN,CC#N,21.8,MeCN_Acids_COSMO-RS_2008_Table.pdf
133,"3,7-Dinitro-10H-phenoxazine",C1=CC2=C(C=C1[N+](=O)[O-])OC3=C(N2)C=CC(=C3)[N+](=O)[O-],-,"3,7-dinitro-10H-phenoxazine",MeCN,CC#N,22.8,MeCN_Acids_COSMO-RS_2008_Table.pdf
127,"1,3,7-Trinitrophenoxazine",C1=CC2=C(C=C1[N+](=O)[O-])OC3=CC(=CC(=C3N2)[N+](=O)[O-])[N+](=O)[O-],-,"1,3,7-trinitro-10H-phenoxazine",MeCN,CC#N,20.3,MeCN_Acids_COSMO-RS_2008_Table.pdf
528,4-nitroIndole,C1=CC2=C(C=CN2)C(=C1)[N+](=O)[O-],4769-97-5,4-nitro-1H-indole,MeCN,CC#N,27.89,pKa_values_of_acids_in_acetonitrile.pdf
757,4769-97-5,C1=CC2=C(C=CN2)C(=C1)[N+](=O)[O-],4769-97-5,4-nitro-1H-indole,MeCN,CC#N,27.89,Ejoc202001649-sup-00001-misc_information.pdf
525,5-nitroIndole,C1=CC2=C(C=CN2)C=C1[N+](=O)[O-],6146-52-7,5-nitro-1H-indole,MeCN,CC#N,28.18,pKa_values_of_acids_in_acetonitrile.pdf
754,6146-52-7,C1=CC2=C(C=CN2)C=C1[N+](=O)[O-],6146-52-7,5-nitro-1H-indole,MeCN,CC#N,28.18,Ejoc202001649-sup-00001-misc_information.pdf
977,6146-52-7,C1=CC2=C(C=CN2)C=C1[N+](=O)[O-],6146-52-7,5-nitro-1H-indole,H2O,O,14.75,Ejoc202001649-sup-00001-misc_information.pdf
1026,6146-52-7,C1=CC2=C(C=CN2)C=C1[N+](=O)[O-],6146-52-7,5-nitro-1H-indole,DMSO,CS(=O)C,15,Ejoc202001649-sup-00001-misc_information.pdf
313,"Quino[7,8-h]quinoline",C1=CC2=C(C3=C(C=C2)C=CC4=C3[NH+]=CC=C4)N=C1,,,MeCN,CC#N,19.61,pKa_values_of_nitrogen_heterocycles.pdf
377,"Quino[7,8-h]quinoline",C1=CC2=C(C3=C(C=C2)C=CC4=C3[NH+]=CC=C4)N=C1,,,H2O,O,12,pKa_values_of_nitrogen_heterocycles.pdf
323,Phenanthroline,C1=CC2=C(C3=C(C=CC=N3)C=C2)[NH+]=C1,-,"1,10-phenanthrolin-10-ium",MeCN,CC#N,13.68,pKa_values_of_nitrogen_heterocycles.pdf
379,Phenanthroline,C1=CC2=C(C3=C(C=CC=N3)C=C2)[NH+]=C1,-,"1,10-phenanthrolin-10-ium",H2O,O,5.12,pKa_values_of_nitrogen_heterocycles.pdf
1207,66-71-7,C1=CC2=C(C3=C(C=CC=N3)C=C2)[NH+]=C1,-,"1,10-phenanthrolin-10-ium",H2O,O,5.12,Bases_pKa_values_MeCN_DMSO_THF_Water.pdf
1340,66-71-7,C1=CC2=C(C3=C(C=CC=N3)C=C2)[NH+]=C1,-,"1,10-phenanthrolin-10-ium",MeCN,CC#N,13.69,Bases_pKa_values_MeCN_DMSO_THF_Water.pdf
349,Pyrazole,C1=CN[NH+]=C1,,1H-pyrazol-2-ium,MeCN,CC#N,9.1,pKa_values_of_nitrogen_heterocycles.pdf
395,Pyrazole,C1=CN[NH+]=C1,,1H-pyrazol-2-ium,H2O,O,2.48,pKa_values_of_nitrogen_heterocycles.pdf
1212,288-13-1,C1=CN[NH+]=C1,,1H-pyrazol-2-ium,H2O,O,2.48,Bases_pKa_values_MeCN_DMSO_THF_Water.pdf
1274,288-13-1,C1=CN[NH+]=C1,,1H-pyrazol-2-ium,DMSO,CS(=O)C,1,Bases_pKa_values_MeCN_DMSO_THF_Water.pdf
1345,288-13-1,C1=CN[NH+]=C1,,1H-pyrazol-2-ium,MeCN,CC#N,9.1,Bases_pKa_values_MeCN_DMSO_THF_Water.pdf
1405,288-13-1,C1=CN[NH+]=C1,,1H-pyrazol-2-ium,THF,C1CCOC1,3.6,Bases_pKa_values_MeCN_DMSO_THF_Water.pdf
367,2-nitroimidazole,C1=CN=C([NH2+]1)[N+](=O)[O-],,2-nitro-1H-imidazol-1-ium,MeCN,CC#N,5.54,pKa_values_of_nitrogen_heterocycles.pdf
404,2-nitroimidazole,C1=CN=C([NH2+]1)[N+](=O)[O-],,2-nitro-1H-imidazol-1-ium,H2O,O,-0.81,pKa_values_of_nitrogen_heterocycles.pdf
317,Imidazole,C1=CN=C[NH2+]1,-,1H-imidazol-1-ium,MeCN,CC#N,15.05,pKa_values_of_nitrogen_heterocycles.pdf
378,Imidazole,C1=CN=C[NH2+]1,-,1H-imidazol-1-ium,H2O,O,6.95,pKa_values_of_nitrogen_heterocycles.pdf
1208,288-32-4,C1=CN=C[NH2+]1,-,1H-imidazol-1-ium,H2O,O,6.95,Bases_pKa_values_MeCN_DMSO_THF_Water.pdf
1271,288-32-4,C1=CN=C[NH2+]1,-,1H-imidazol-1-ium,DMSO,CS(=O)C,6.26,Bases_pKa_values_MeCN_DMSO_THF_Water.pdf
1341,288-32-4,C1=CN=C[NH2+]1,-,1H-imidazol-1-ium,MeCN,CC#N,15.07,Bases_pKa_values_MeCN_DMSO_THF_Water.pdf
1403,288-32-4,C1=CN=C[NH2+]1,-,1H-imidazol-1-ium,THF,C1CCOC1,9.4,Bases_pKa_values_MeCN_DMSO_THF_Water.pdf
355,Pyrazine,C1=CN=CC=[NH+]1,-,pyrazin-1-ium,MeCN,CC#N,7.74,pKa_values_of_nitrogen_heterocycles.pdf
398,Pyrazine,C1=CN=CC=[NH+]1,-,pyrazin-1-ium,H2O,O,0.6,pKa_values_of_nitrogen_heterocycles.pdf
1216,290-37-9,C1=CN=CC=[NH+]1,-,pyrazin-1-ium,H2O,O,0.6,Bases_pKa_values_MeCN_DMSO_THF_Water.pdf
1277,290-37-9,C1=CN=CC=[NH+]1,-,pyrazin-1-ium,DMSO,CS(=O)C,-0.2,Bases_pKa_values_MeCN_DMSO_THF_Water.pdf
1349,290-37-9,C1=CN=CC=[NH+]1,-,pyrazin-1-ium,MeCN,CC#N,7.74,Bases_pKa_values_MeCN_DMSO_THF_Water.pdf
1408,290-37-9,C1=CN=CC=[NH+]1,-,pyrazin-1-ium,THF,C1CCOC1,1.4,Bases_pKa_values_MeCN_DMSO_THF_Water.pdf
1462,C10F15COH,C12(C(C3(C(C(C1(F)F)(C(C(C2(F)F)(C3(F)F)F)(F)F)F)(F)F)F)(F)F)O,160823-57-4,"2,2,3,4,4,5,6,6,7,8,8,9,9,10,10-pentadecafluoroadamantan-1-ol",MeCN,CC#N,18.25,leito_acids
44,727-49-1,C12=C(C(=C(C(=C1F)O)F)F)C(=C(C(=C2F)F)F)F,727-49-1,"1,3,4,5,6,7,8-heptafluoronaphthalen-2-ol",MeCN,CC#N,18.5,MeCN_Acids_COSMO-RS_2008_Table.pdf
842,727-49-1,C12=C(C(=C(C(=C1F)O)F)F)C(=C(C(=C2F)F)F)F,727-49-1,"1,3,4,5,6,7,8-heptafluoronaphthalen-2-ol",MeCN,CC#N,18.5,Ejoc202001649-sup-00001-misc_information.pdf
1069,727-49-1,C12=C(C(=C(C(=C1F)O)F)F)C(=C(C(=C2F)F)F)F,727-49-1,"1,3,4,5,6,7,8-heptafluoronaphthalen-2-ol",DMSO,CS(=O)C,7.9,Ejoc202001649-sup-00001-misc_information.pdf
1461,2-Perfluoronaphthol,C12=C(C(=C(C(=C1F)O)F)F)C(=C(C(=C2F)F)F)F,727-49-1,"1,3,4,5,6,7,8-heptafluoronaphthalen-2-ol",MeCN,CC#N,18.5,leito_acids
42,5386-30-1,C12=C(C(=C(C(=C1O)F)F)F)C(=C(C(=C2F)F)F)F,5386-30-1,"2,3,4,5,6,7,8-heptafluoronaphthalen-1-ol",MeCN,CC#N,19.72,MeCN_Acids_COSMO-RS_2008_Table.pdf
837,5386-30-1,C12=C(C(=C(C(=C1O)F)F)F)C(=C(C(=C2F)F)F)F,5386-30-1,"2,3,4,5,6,7,8-heptafluoronaphthalen-1-ol",MeCN,CC#N,19.7,Ejoc202001649-sup-00001-misc_information.pdf
1067,5386-30-1,C12=C(C(=C(C(=C1O)F)F)F)C(=C(C(=C2F)F)F)F,5386-30-1,"2,3,4,5,6,7,8-heptafluoronaphthalen-1-ol",DMSO,CS(=O)C,8.9,Ejoc202001649-sup-00001-misc_information.pdf
1457,1-perfluoronaphtol,C12=C(C(=C(C(=C1O)F)F)F)C(=C(C(=C2F)F)F)F,5386-30-1,"2,3,4,5,6,7,8-heptafluoronaphthalen-1-ol",MeCN,CC#N,19.72,leito_acids
1199,100-76-5,C1C[NH+]2CCC1CC2,-,1-azoniabicyclo[2.2.2]octane,H2O,O,11,Bases_pKa_values_MeCN_DMSO_THF_Water.pdf
1268,100-76-5,C1C[NH+]2CCC1CC2,-,1-azoniabicyclo[2.2.2]octane,DMSO,CS(=O)C,9.8,Bases_pKa_values_MeCN_DMSO_THF_Water.pdf
1331,100-76-5,C1C[NH+]2CCC1CC2,-,1-azoniabicyclo[2.2.2]octane,MeCN,CC#N,19.7,Bases_pKa_values_MeCN_DMSO_THF_Water.pdf
1399,100-76-5,C1C[NH+]2CCC1CC2,-,1-azoniabicyclo[2.2.2]octane,THF,C1CCOC1,13.1,Bases_pKa_values_MeCN_DMSO_THF_Water.pdf
37,27053-34-5,C1C2=C(C3=C1C(=C(C(=C3F)F)F)F)C(=C(C(=C2F)F)F)F,27053-34-5,"1,2,3,4,5,6,7,8-octafluoro-9H-fluorene",MeCN,CC#N,24.49,MeCN_Acids_COSMO-RS_2008_Table.pdf
565,Octafluorofluorene,C1C2=C(C3=C1C(=C(C(=C3F)F)F)F)C(=C(C(=C2F)F)F)F,27053-34-5,"1,2,3,4,5,6,7,8-octafluoro-9H-fluorene",MeCN,CC#N,24.49,pKa_values_of_acids_in_acetonitrile.pdf
795,27053-34-5,C1C2=C(C3=C1C(=C(C(=C3F)F)F)F)C(=C(C(=C2F)F)F)F,27053-34-5,"1,2,3,4,5,6,7,8-octafluoro-9H-fluorene",MeCN,CC#N,24.49,Ejoc202001649-sup-00001-misc_information.pdf
1045,27053-34-5,C1C2=C(C3=C1C(=C(C(=C3F)F)F)F)C(=C(C(=C2F)F)F)F,27053-34-5,"1,2,3,4,5,6,7,8-octafluoro-9H-fluorene",DMSO,CS(=O)C,10.8,Ejoc202001649-sup-00001-misc_information.pdf
1434,Oktafluorofluorene,C1C2=C(C3=C1C(=C(C(=C3F)F)F)F)C(=C(C(=C2F)F)F)F,27053-34-5,"1,2,3,4,5,6,7,8-octafluoro-9H-fluorene",MeCN,CC#N,24.49,leito_acids
1333,280-74-0,C1C2CNCC1C[NH2+]C2,,,MeCN,CC#N,21.56,Bases_pKa_values_MeCN_DMSO_THF_Water.pdf
1401,280-74-0,C1C2CNCC1C[NH2+]C2,,,THF,C1CCOC1,14.8,Bases_pKa_values_MeCN_DMSO_THF_Water.pdf
1198,123-75-1,C1CC[NH2+]C1,84316-19-8,pyrrolidin-1-ium,H2O,O,11.27,Bases_pKa_values_MeCN_DMSO_THF_Water.pdf
1267,123-75-1,C1CC[NH2+]C1,84316-19-8,pyrrolidin-1-ium,DMSO,CS(=O)C,11.06,Bases_pKa_values_MeCN_DMSO_THF_Water.pdf
1330,123-75-1,C1CC[NH2+]C1,84316-19-8,pyrrolidin-1-ium,MeCN,CC#N,19.62,Bases_pKa_values_MeCN_DMSO_THF_Water.pdf
1398,123-75-1,C1CC[NH2+]C1,84316-19-8,pyrrolidin-1-ium,THF,C1CCOC1,13.5,Bases_pKa_values_MeCN_DMSO_THF_Water.pdf
1194,110-89-4,C1CC[NH2+]CC1,17523-59-0,piperidin-1-ium,H2O,O,11.22,Bases_pKa_values_MeCN_DMSO_THF_Water.pdf
1263,110-89-4,C1CC[NH2+]CC1,17523-59-0,piperidin-1-ium,DMSO,CS(=O)C,10.85,Bases_pKa_values_MeCN_DMSO_THF_Water.pdf
1326,110-89-4,C1CC[NH2+]CC1,17523-59-0,piperidin-1-ium,MeCN,CC#N,19.35,Bases_pKa_values_MeCN_DMSO_THF_Water.pdf
1394,110-89-4,C1CC[NH2+]CC1,17523-59-0,piperidin-1-ium,THF,C1CCOC1,14.3,Bases_pKa_values_MeCN_DMSO_THF_Water.pdf
1217,3001-72-7,C1CC2=NCCC[NH+]2C1,-,"3,4,5,6,7,8-hexahydro-2H-pyrrolo[1,2-a]pyrimidin-5-ium",H2O,O,13.5,Bases_pKa_values_MeCN_DMSO_THF_Water.pdf
1278,3001-72-7,C1CC2=NCCC[NH+]2C1,-,"3,4,5,6,7,8-hexahydro-2H-pyrrolo[1,2-a]pyrimidin-5-ium",DMSO,CS(=O)C,13.4,Bases_pKa_values_MeCN_DMSO_THF_Water.pdf
1350,3001-72-7,C1CC2=NCCC[NH+]2C1,-,"3,4,5,6,7,8-hexahydro-2H-pyrrolo[1,2-a]pyrimidin-5-ium",MeCN,CC#N,23.89,Bases_pKa_values_MeCN_DMSO_THF_Water.pdf
1409,3001-72-7,C1CC2=NCCC[NH+]2C1,-,"3,4,5,6,7,8-hexahydro-2H-pyrrolo[1,2-a]pyrimidin-5-ium",THF,C1CCOC1,17.2,Bases_pKa_values_MeCN_DMSO_THF_Water.pdf
874,934201-93-1,C1CCC2=C3C4=C5CCCCC5=CC(=C4OP(=O)(OC3=C(C=C2C1)C6=CC7=CC=CC=C7C8=CC=CC=C86)O)C9=CC1=CC=CC=C1C1=CC=CC=C19,934201-93-1,"13-hydroxy-10,16-di(phenanthren-9-yl)-12,14-dioxa-13_5-phosphapentacyclo[13.8.0.02,11.03,8.018,23]tricosa-1(23),2,8,10,15,17-hexaene 13-oxide",MeCN,CC#N,13.97,Ejoc202001649-sup-00001-misc_information.pdf
1482,Substance1,C1CCC2=C3C4=C5CCCCC5=CC(=C4OP(=O)(OC3=C(C=C2C1)C6=CC7=CC=CC=C7C8=CC=CC=C86)O)C9=CC1=CC=CC=C1C1=CC=CC=C19,934201-93-1,"13-hydroxy-10,16-di(phenanthren-9-yl)-12,14-dioxa-13_5-phosphapentacyclo[13.8.0.02,11.03,8.018,23]tricosa-1(23),2,8,10,15,17-hexaene 13-oxide",MeCN,CC#N,14,leito_acids
240,DBU-H+,C1CCC2=NCCC[NH+]2CC1,-,"3,4,5,6,7,8,9,10-octahydro-2H-pyrimido[1,2-a]azepin-5-ium",MeCN,CC#N,24.34,pKa_values_of_acids_and_bases_in_MeCN_DCE_DMSO_H2O_THF_C7_DME.pdf
272,DBU-H+,C1CCC2=NCCC[NH+]2CC1,-,"3,4,5,6,7,8,9,10-octahydro-2H-pyrimido[1,2-a]azepin-5-ium",DMSO,CS(=O)C,13.9,pKa_values_of_acids_and_bases_in_MeCN_DCE_DMSO_H2O_THF_C7_DME.pdf
298,DBU-H+,C1CCC2=NCCC[NH+]2CC1,-,"3,4,5,6,7,8,9,10-octahydro-2H-pyrimido[1,2-a]azepin-5-ium",THF,C1CCOC1,16.6,pKa_values_of_acids_and_bases_in_MeCN_DCE_DMSO_H2O_THF_C7_DME.pdf
1218,6674-22-2,C1CCC2=NCCC[NH+]2CC1,-,"3,4,5,6,7,8,9,10-octahydro-2H-pyrimido[1,2-a]azepin-5-ium",H2O,O,13.5,Bases_pKa_values_MeCN_DMSO_THF_Water.pdf
1279,6674-22-2,C1CCC2=NCCC[NH+]2CC1,-,"3,4,5,6,7,8,9,10-octahydro-2H-pyrimido[1,2-a]azepin-5-ium",DMSO,CS(=O)C,13.9,Bases_pKa_values_MeCN_DMSO_THF_Water.pdf
1351,6674-22-2,C1CCC2=NCCC[NH+]2CC1,-,"3,4,5,6,7,8,9,10-octahydro-2H-pyrimido[1,2-a]azepin-5-ium",MeCN,CC#N,24.31,Bases_pKa_values_MeCN_DMSO_THF_Water.pdf
1410,6674-22-2,C1CCC2=NCCC[NH+]2CC1,-,"3,4,5,6,7,8,9,10-octahydro-2H-pyrimido[1,2-a]azepin-5-ium",THF,C1CCOC1,16.9,Bases_pKa_values_MeCN_DMSO_THF_Water.pdf
1200,280-57-9,C1CN2CC[NH+]1CC2,49623-77-0,4-aza-1-azoniabicyclo[2.2.2]octane,H2O,O,8.82,Bases_pKa_values_MeCN_DMSO_THF_Water.pdf
1269,280-57-9,C1CN2CC[NH+]1CC2,49623-77-0,4-aza-1-azoniabicyclo[2.2.2]octane,DMSO,CS(=O)C,9.06,Bases_pKa_values_MeCN_DMSO_THF_Water.pdf
1332,280-57-9,C1CN2CC[NH+]1CC2,49623-77-0,4-aza-1-azoniabicyclo[2.2.2]octane,MeCN,CC#N,18.29,Bases_pKa_values_MeCN_DMSO_THF_Water.pdf
1400,280-57-9,C1CN2CC[NH+]1CC2,49623-77-0,4-aza-1-azoniabicyclo[2.2.2]octane,THF,C1CCOC1,11.7,Bases_pKa_values_MeCN_DMSO_THF_Water.pdf
241,TBD-H+,C1CNC2=NCCC[NH+]2C1,-,"2,3,4,5,6,7,8,9-octahydropyrimido[1,2-a]pyrimidin-5-ium",MeCN,CC#N,26.03,pKa_values_of_acids_and_bases_in_MeCN_DCE_DMSO_H2O_THF_C7_DME.pdf
299,TBD-H+,C1CNC2=NCCC[NH+]2C1,-,"2,3,4,5,6,7,8,9-octahydropyrimido[1,2-a]pyrimidin-5-ium",THF,C1CCOC1,19.4,pKa_values_of_acids_and_bases_in_MeCN_DCE_DMSO_H2O_THF_C7_DME.pdf
1220,5807-14-7,C1CNC2=NCCC[NH+]2C1,-,"2,3,4,5,6,7,8,9-octahydropyrimido[1,2-a]pyrimidin-5-ium",H2O,O,15.2,Bases_pKa_values_MeCN_DMSO_THF_Water.pdf
1281,5807-14-7,C1CNC2=NCCC[NH+]2C1,-,"2,3,4,5,6,7,8,9-octahydropyrimido[1,2-a]pyrimidin-5-ium",DMSO,CS(=O)C,15.3,Bases_pKa_values_MeCN_DMSO_THF_Water.pdf
1353,5807-14-7,C1CNC2=NCCC[NH+]2C1,-,"2,3,4,5,6,7,8,9-octahydropyrimido[1,2-a]pyrimidin-5-ium",MeCN,CC#N,26.02,Bases_pKa_values_MeCN_DMSO_THF_Water.pdf
1412,5807-14-7,C1CNC2=NCCC[NH+]2C1,-,"2,3,4,5,6,7,8,9-octahydropyrimido[1,2-a]pyrimidin-5-ium",THF,C1CCOC1,21,Bases_pKa_values_MeCN_DMSO_THF_Water.pdf
1196,110-85-0,C1CNCC[NH2+]1,8057-14-5,piperazin-1-ium,H2O,O,9.72,Bases_pKa_values_MeCN_DMSO_THF_Water.pdf