,checking,solute,solute SMILES,computed CAS,computed IUPAC,solvent,solvent SMILES,pka,ref
1167,T,124-40-3,C[NH2+]C,49784-85-2,dimethylazanium,H2O,O,10.64,Bases_pKa_values_MeCN_DMSO_THF_Water.pdf
1168,T,109-89-7,CC[NH2+]CC,-,diethylazanium,H2O,O,10.98,Bases_pKa_values_MeCN_DMSO_THF_Water.pdf
1169,T,142-84-7,CCC[NH2+]CCC,-,dipropylazanium,H2O,O,11,Bases_pKa_values_MeCN_DMSO_THF_Water.pdf
1170,T,111-92-2,CCCC[NH2+]CCCC,-,dibutylazanium,H2O,O,11.25,Bases_pKa_values_MeCN_DMSO_THF_Water.pdf
1171,T,103-49-1,C1=CC=C(C=C1)C[NH2+]CC2=CC=CC=C2,-,dibenzylazanium,H2O,O,8.52,Bases_pKa_values_MeCN_DMSO_THF_Water.pdf
1172,T,122-39-4,C1=CC=C(C=C1)[NH2+]C2=CC=CC=C2,61236-17-7,diphenylazanium,H2O,O,0.79,Bases_pKa_values_MeCN_DMSO_THF_Water.pdf
1173,T,100-61-8,C[NH2+]C1=CC=CC=C1,-,methyl(phenyl)azanium,H2O,O,4.85,Bases_pKa_values_MeCN_DMSO_THF_Water.pdf
1174,T,75-50-3,C[NH+](C)C,,trimethylazanium,H2O,O,9.76,Bases_pKa_values_MeCN_DMSO_THF_Water.pdf
1175,T,121-44-8,CC[NH+](CC)CC,17440-81-2,triethylazanium,H2O,O,10.65,Bases_pKa_values_MeCN_DMSO_THF_Water.pdf
1176,T,102-69-2,CCC[NH+](CCC)CCC,-,tripropylazanium,H2O,O,10.65,Bases_pKa_values_MeCN_DMSO_THF_Water.pdf
1177,T,102-82-9,CCCC[NH+](CCCC)CCCC,-,tributylazanium,H2O,O,10.89,Bases_pKa_values_MeCN_DMSO_THF_Water.pdf
1178,T,620-40-6,C1=CC=C(C=C1)C[NH+](CC2=CC=CC=C2)CC3=CC=CC=C3,-,tribenzylazanium,H2O,O,7.44,Bases_pKa_values_MeCN_DMSO_THF_Water.pdf
1179,T,603-34-9,C1=CC=C(C=C1)[NH+](C2=CC=CC=C2)C3=CC=CC=C3,-,triphenylazanium,H2O,O,-3.91,Bases_pKa_values_MeCN_DMSO_THF_Water.pdf
1180,T,121-69-7,C[NH+](C)C1=CC=CC=C1,-,dimethyl(phenyl)azanium,H2O,O,5.06,Bases_pKa_values_MeCN_DMSO_THF_Water.pdf
1181,T,598-56-1,CC[NH+](C)C,-,ethyl(dimethyl)azanium,H2O,O,9.99,Bases_pKa_values_MeCN_DMSO_THF_Water.pdf
1182,T,616-39-7,CC[NH+](C)CC,-,diethyl(methyl)azanium,H2O,O,10.29,Bases_pKa_values_MeCN_DMSO_THF_Water.pdf
1183,T,4458-31-5,CCC[NH+](CC)CC,-,diethyl(propyl)azanium,H2O,O,10.5,Bases_pKa_values_MeCN_DMSO_THF_Water.pdf
1184,T,107-15-3,C(CN)[NH3+],-,2-aminoethylazanium,H2O,O,9.98,Bases_pKa_values_MeCN_DMSO_THF_Water.pdf
1185,T,109-76-2,C(C[NH3+])CN,-,3-aminopropylazanium,H2O,O,10.47,Bases_pKa_values_MeCN_DMSO_THF_Water.pdf
1186,T,110-60-1,C(CCN)C[NH3+],-,4-aminobutylazanium,H2O,O,10.65,Bases_pKa_values_MeCN_DMSO_THF_Water.pdf
1187,T,462-94-2,C(CC[NH3+])CCN,-,5-aminopentylazanium,H2O,O,10.85,Bases_pKa_values_MeCN_DMSO_THF_Water.pdf
1188,T,110-18-9,C[NH+](C)CCN(C)C,-,2-(dimethylamino)ethyl-dimethylazanium,H2O,O,9.15,Bases_pKa_values_MeCN_DMSO_THF_Water.pdf
1189,T,110-95-2,C[NH+](C)CCCN(C)C,-,3-(dimethylamino)propyl-dimethylazanium,H2O,O,10.6,Bases_pKa_values_MeCN_DMSO_THF_Water.pdf
1190,T,111-51-3,C[NH+](C)CCCCN(C)C,-,4-(dimethylamino)butyl-dimethylazanium,H2O,O,10.8,Bases_pKa_values_MeCN_DMSO_THF_Water.pdf
1191,T,479-27-6,C1=CC2=C(C(=C1)[NH3+])C(=CC=C2)N,-,(8-aminonaphthalen-1-yl)azanium,H2O,O,4.61,Bases_pKa_values_MeCN_DMSO_THF_Water.pdf
1192,T,20734-58-1,C[NH+](C)C1=CC=CC2=C1C(=CC=C2)N(C)C,-,[8-(dimethylamino)naphthalen-1-yl]-dimethylazanium,H2O,O,12,Bases_pKa_values_MeCN_DMSO_THF_Water.pdf
1193,T,302-01-2,[NH3+]N,18500-32-8,aminoazanium,H2O,O,7.96,Bases_pKa_values_MeCN_DMSO_THF_Water.pdf
1194,T,110-89-4,C1CC[NH2+]CC1,17523-59-0,piperidin-1-ium,H2O,O,11.22,Bases_pKa_values_MeCN_DMSO_THF_Water.pdf
1195,T,626-67-5,C[NH+]1CCCCC1,-,1-methylpiperidin-1-ium,H2O,O,10.08,Bases_pKa_values_MeCN_DMSO_THF_Water.pdf
1196,T,110-85-0,C1CNCC[NH2+]1,8057-14-5,piperazin-1-ium,H2O,O,9.72,Bases_pKa_values_MeCN_DMSO_THF_Water.pdf
1197,T,106-58-1,C[NH+]1CCN(CC1)C,-,"1,4-dimethylpiperazin-1-ium",H2O,O,8.54,Bases_pKa_values_MeCN_DMSO_THF_Water.pdf
1198,T,123-75-1,C1CC[NH2+]C1,84316-19-8,pyrrolidin-1-ium,H2O,O,11.27,Bases_pKa_values_MeCN_DMSO_THF_Water.pdf
1199,T,100-76-5,C1C[NH+]2CCC1CC2,-,1-azoniabicyclo[2.2.2]octane,H2O,O,11,Bases_pKa_values_MeCN_DMSO_THF_Water.pdf
1200,T,280-57-9,C1CN2CC[NH+]1CC2,49623-77-0,4-aza-1-azoniabicyclo[2.2.2]octane,H2O,O,8.82,Bases_pKa_values_MeCN_DMSO_THF_Water.pdf
1201,T,110-86-1,C1=CC=[NH+]C=C1,16969-45-2,pyridin-1-ium,H2O,O,5.23,Bases_pKa_values_MeCN_DMSO_THF_Water.pdf
1202,T,366-18-7,C1=CC=[NH+]C(=C1)C2=CC=CC=N2,,2-pyridin-1-ium-2-ylpyridine,H2O,O,4.23,Bases_pKa_values_MeCN_DMSO_THF_Water.pdf
1203,T,91-22-5,C1=CC=C2C(=C1)C=CC=[NH+]2,-,quinolin-1-ium,H2O,O,4.93,Bases_pKa_values_MeCN_DMSO_THF_Water.pdf
1204,T,119-91-5,C1=CC=C2C(=C1)C=CC(=N2)C3=[NH+]C4=CC=CC=C4C=C3,-,-,H2O,O,3.66,Bases_pKa_values_MeCN_DMSO_THF_Water.pdf
1205,T,119-65-3,C1=CC=C2C=[NH+]C=CC2=C1,-,isoquinolin-2-ium,H2O,O,5.46,Bases_pKa_values_MeCN_DMSO_THF_Water.pdf
1206,T,260-94-6,C1=CC=C2C(=C1)C=C3C=CC=CC3=[NH+]2,-,acridin-10-ium,H2O,O,5.62,Bases_pKa_values_MeCN_DMSO_THF_Water.pdf
1207,T,66-71-7,C1=CC2=C(C3=C(C=CC=N3)C=C2)[NH+]=C1,-,"1,10-phenanthrolin-10-ium",H2O,O,5.12,Bases_pKa_values_MeCN_DMSO_THF_Water.pdf
1208,T,288-32-4,C1=CN=C[NH2+]1,-,1H-imidazol-1-ium,H2O,O,6.95,Bases_pKa_values_MeCN_DMSO_THF_Water.pdf
1209,T,51-17-2,C1=CC=C2C(=C1)NC=[NH+]2,-,1H-benzimidazol-3-ium,H2O,O,5.56,Bases_pKa_values_MeCN_DMSO_THF_Water.pdf
1210,T,288-36-8,C1=[NH+]NN=C1,-,2H-triazol-1-ium,H2O,O,1.17,Bases_pKa_values_MeCN_DMSO_THF_Water.pdf
1211,T,95-14-7,C1=CC2=[NH+]NN=C2C=C1,-,2H-benzotriazol-1-ium,H2O,O,0.42,Bases_pKa_values_MeCN_DMSO_THF_Water.pdf
1212,T,288-13-1,C1=CN[NH+]=C1,,1H-pyrazol-2-ium,H2O,O,2.48,Bases_pKa_values_MeCN_DMSO_THF_Water.pdf
1213,T,271-44-3,C1=CC=C2C(=C1)C=[NH+]N2,-,1H-indazol-2-ium,H2O,O,1.25,Bases_pKa_values_MeCN_DMSO_THF_Water.pdf
1214,T,289-80-5,C1=CC=N[NH+]=C1,-,pyridazin-1-ium,H2O,O,2.33,Bases_pKa_values_MeCN_DMSO_THF_Water.pdf
1215,T,289-95-2,C1=C[NH+]=CN=C1,-,pyrimidin-1-ium,H2O,O,1.3,Bases_pKa_values_MeCN_DMSO_THF_Water.pdf
1216,T,290-37-9,C1=CN=CC=[NH+]1,-,pyrazin-1-ium,H2O,O,0.6,Bases_pKa_values_MeCN_DMSO_THF_Water.pdf
1217,T,3001-72-7,C1CC2=NCCC[NH+]2C1,-,"3,4,5,6,7,8-hexahydro-2H-pyrrolo[1,2-a]pyrimidin-5-ium",H2O,O,13.5,Bases_pKa_values_MeCN_DMSO_THF_Water.pdf
1218,T,6674-22-2,C1CCC2=NCCC[NH+]2CC1,-,"3,4,5,6,7,8,9,10-octahydro-2H-pyrimido[1,2-a]azepin-5-ium",H2O,O,13.5,Bases_pKa_values_MeCN_DMSO_THF_Water.pdf
1219,T,80-70-6,C[NH+](C)C(=N)N(C)C,-,"(N,N-dimethylcarbamimidoyl)-dimethylazanium",H2O,O,13,Bases_pKa_values_MeCN_DMSO_THF_Water.pdf
1220,T,5807-14-7,C1CNC2=NCCC[NH+]2C1,-,"2,3,4,5,6,7,8,9-octahydropyrimido[1,2-a]pyrimidin-5-ium",H2O,O,15.2,Bases_pKa_values_MeCN_DMSO_THF_Water.pdf
1221,T,84030-20-6,CN1CCC[NH+]2C1=NCCC2,-,"1-methyl-3,4,5,6,7,8-hexahydro-2H-pyrimido[1,2-a]pyrimidin-5-ium",H2O,O,15,Bases_pKa_values_MeCN_DMSO_THF_Water.pdf
1222,T,102-06-7,C1=CC=C(C=C1)NC(=[NH+]C2=CC=CC=C2)N,-,[amino(anilino)methylidene]-phenylazanium,H2O,O,10.02,Bases_pKa_values_MeCN_DMSO_THF_Water.pdf
1223,T,49778-01-0,CN(C)[P+](N)(N(C)C)N(C)C,-,amino-tris(dimethylamino)phosphanium,H2O,O,15.1,Bases_pKa_values_MeCN_DMSO_THF_Water.pdf
1225,T,81675-81-2,CC(C)(C)N[P+](N(C)C)(N(C)C)N(C)C,-,(tert-butylamino)-tris(dimethylamino)phosphanium,H2O,O,17,Bases_pKa_values_MeCN_DMSO_THF_Water.pdf
1226,T,161118-67-8,CC(C)(C)N[P+](N1CCCC1)(N2CCCC2)N3CCCC3,-,(tert-butylamino)-tripyrrolidin-1-ylphosphanium,H2O,O,17.5,Bases_pKa_values_MeCN_DMSO_THF_Water.pdf
1227,T,35589-04-9,CN(C)[P+](NC1=CC=CC=C1)(N(C)C)N(C)C,-,anilino-tris(dimethylamino)phosphanium,H2O,O,10.64,Bases_pKa_values_MeCN_DMSO_THF_Water.pdf
1228,T,165535-45-5,CCNP(=N[P+](N(C)C)(N(C)C)N(C)C)(N(C)C)N(C)C,-,[[bis(dimethylamino)-(ethylamino)-_5-phosphanylidene]amino]-tris(dimethylamino)phosphanium,H2O,O,20,Bases_pKa_values_MeCN_DMSO_THF_Water.pdf
1229,T,111324-04-0,CC(C)(C)N[P+](N=P(N(C)C)(N(C)C)N(C)C)(N=P(N(C)C)(N(C)C)N(C)C)N=P(N(C)C)(N(C)C)N(C)C,-,(tert-butylamino)-tris[[tris(dimethylamino)-_5-phosphanylidene]amino]phosphanium,H2O,O,30,Bases_pKa_values_MeCN_DMSO_THF_Water.pdf
1230,T,74-89-5,C[NH3+],17000-00-9,methylazanium,DMSO,CS(=O)C,11,Bases_pKa_values_MeCN_DMSO_THF_Water.pdf
1231,T,75-04-7,CC[NH3+],16999-99-8,ethylazanium,DMSO,CS(=O)C,10.9,Bases_pKa_values_MeCN_DMSO_THF_Water.pdf
1232,T,107-10-8,CCC[NH3+],,propylazanium,DMSO,CS(=O)C,10.7,Bases_pKa_values_MeCN_DMSO_THF_Water.pdf
1233,T,75-31-0,CC(C)[NH3+],,propan-2-ylazanium,DMSO,CS(=O)C,10.9,Bases_pKa_values_MeCN_DMSO_THF_Water.pdf
1234,T,109-73-9,CCCC[NH3+],-,butylazanium,DMSO,CS(=O)C,11.1,Bases_pKa_values_MeCN_DMSO_THF_Water.pdf
1235,T,78-81-9,CC(C)C[NH3+],58471-06-0,2-methylpropylazanium,DMSO,CS(=O)C,10.9,Bases_pKa_values_MeCN_DMSO_THF_Water.pdf
1236,T,100-46-9,C1=CC=C(C=C1)C[NH3+],-,benzylazanium,DMSO,CS(=O)C,10.16,Bases_pKa_values_MeCN_DMSO_THF_Water.pdf
1237,T,62-53-3,C1=CC=C(C=C1)[NH3+],65756-50-5,phenylazanium,DMSO,CS(=O)C,3.6,Bases_pKa_values_MeCN_DMSO_THF_Water.pdf
1238,T,7664-41-7,[NH4+],14798-03-9,azanium,DMSO,CS(=O)C,10.5,Bases_pKa_values_MeCN_DMSO_THF_Water.pdf
1239,T,124-40-3,C[NH2+]C,49784-85-2,dimethylazanium,DMSO,CS(=O)C,10.3,Bases_pKa_values_MeCN_DMSO_THF_Water.pdf
1240,T,109-89-7,CC[NH2+]CC,-,diethylazanium,DMSO,CS(=O)C,10.5,Bases_pKa_values_MeCN_DMSO_THF_Water.pdf
1241,T,142-84-7,CCC[NH2+]CCC,-,dipropylazanium,DMSO,CS(=O)C,10.3,Bases_pKa_values_MeCN_DMSO_THF_Water.pdf
1242,T,111-92-2,CCCC[NH2+]CCCC,-,dibutylazanium,DMSO,CS(=O)C,10,Bases_pKa_values_MeCN_DMSO_THF_Water.pdf
1243,T,122-39-4,C1=CC=C(C=C1)[NH2+]C2=CC=CC=C2,61236-17-7,diphenylazanium,DMSO,CS(=O)C,-1.1,Bases_pKa_values_MeCN_DMSO_THF_Water.pdf
1244,T,100-61-8,C[NH2+]C1=CC=CC=C1,-,methyl(phenyl)azanium,DMSO,CS(=O)C,2.94,Bases_pKa_values_MeCN_DMSO_THF_Water.pdf
1245,T,75-50-3,C[NH+](C)C,,trimethylazanium,DMSO,CS(=O)C,8.4,Bases_pKa_values_MeCN_DMSO_THF_Water.pdf
1246,T,121-44-8,CC[NH+](CC)CC,17440-81-2,triethylazanium,DMSO,CS(=O)C,9,Bases_pKa_values_MeCN_DMSO_THF_Water.pdf
1247,T,102-69-2,CCC[NH+](CCC)CCC,-,tripropylazanium,DMSO,CS(=O)C,10.7,Bases_pKa_values_MeCN_DMSO_THF_Water.pdf
1248,T,102-82-9,CCCC[NH+](CCCC)CCCC,-,tributylazanium,DMSO,CS(=O)C,8.4,Bases_pKa_values_MeCN_DMSO_THF_Water.pdf
1249,T,620-40-6,C1=CC=C(C=C1)C[NH+](CC2=CC=CC=C2)CC3=CC=CC=C3,-,tribenzylazanium,DMSO,CS(=O)C,4.1,Bases_pKa_values_MeCN_DMSO_THF_Water.pdf
1250,T,121-69-7,C[NH+](C)C1=CC=CC=C1,-,dimethyl(phenyl)azanium,DMSO,CS(=O)C,2.7,Bases_pKa_values_MeCN_DMSO_THF_Water.pdf
1251,T,598-56-1,CC[NH+](C)C,-,ethyl(dimethyl)azanium,DMSO,CS(=O)C,8.5,Bases_pKa_values_MeCN_DMSO_THF_Water.pdf
1252,T,616-39-7,CC[NH+](C)CC,-,diethyl(methyl)azanium,DMSO,CS(=O)C,9,Bases_pKa_values_MeCN_DMSO_THF_Water.pdf
1253,T,4458-31-5,CCC[NH+](CC)CC,-,diethyl(propyl)azanium,DMSO,CS(=O)C,9,Bases_pKa_values_MeCN_DMSO_THF_Water.pdf
1254,T,107-15-3,C(CN)[NH3+],-,2-aminoethylazanium,DMSO,CS(=O)C,11.1,Bases_pKa_values_MeCN_DMSO_THF_Water.pdf
1255,T,109-76-2,C(C[NH3+])CN,-,3-aminopropylazanium,DMSO,CS(=O)C,12.3,Bases_pKa_values_MeCN_DMSO_THF_Water.pdf
1256,T,110-60-1,C(CCN)C[NH3+],-,4-aminobutylazanium,DMSO,CS(=O)C,12.6,Bases_pKa_values_MeCN_DMSO_THF_Water.pdf
1257,T,462-94-2,C(CC[NH3+])CCN,-,5-aminopentylazanium,DMSO,CS(=O)C,11.7,Bases_pKa_values_MeCN_DMSO_THF_Water.pdf
1258,T,110-18-9,C[NH+](C)CCN(C)C,-,2-(dimethylamino)ethyl-dimethylazanium,DMSO,CS(=O)C,8.8,Bases_pKa_values_MeCN_DMSO_THF_Water.pdf
1259,T,110-95-2,C[NH+](C)CCCN(C)C,-,3-(dimethylamino)propyl-dimethylazanium,DMSO,CS(=O)C,9.4,Bases_pKa_values_MeCN_DMSO_THF_Water.pdf
1260,T,111-51-3,C[NH+](C)CCCCN(C)C,-,4-(dimethylamino)butyl-dimethylazanium,DMSO,CS(=O)C,10,Bases_pKa_values_MeCN_DMSO_THF_Water.pdf
1261,T,20734-58-1,C[NH+](C)C1=CC=CC2=C1C(=CC=C2)N(C)C,-,[8-(dimethylamino)naphthalen-1-yl]-dimethylazanium,DMSO,CS(=O)C,7.47,Bases_pKa_values_MeCN_DMSO_THF_Water.pdf
1262,T,302-01-2,[NH3+]N,18500-32-8,aminoazanium,DMSO,CS(=O)C,10.1,Bases_pKa_values_MeCN_DMSO_THF_Water.pdf
1263,T,110-89-4,C1CC[NH2+]CC1,17523-59-0,piperidin-1-ium,DMSO,CS(=O)C,10.85,Bases_pKa_values_MeCN_DMSO_THF_Water.pdf
1264,T,626-67-5,C[NH+]1CCCCC1,-,1-methylpiperidin-1-ium,DMSO,CS(=O)C,8.4,Bases_pKa_values_MeCN_DMSO_THF_Water.pdf
1265,T,110-85-0,C1CNCC[NH2+]1,8057-14-5,piperazin-1-ium,DMSO,CS(=O)C,10.5,Bases_pKa_values_MeCN_DMSO_THF_Water.pdf
1266,T,106-58-1,C[NH+]1CCN(CC1)C,-,"1,4-dimethylpiperazin-1-ium",DMSO,CS(=O)C,7.7,Bases_pKa_values_MeCN_DMSO_THF_Water.pdf
1267,T,123-75-1,C1CC[NH2+]C1,84316-19-8,pyrrolidin-1-ium,DMSO,CS(=O)C,11.06,Bases_pKa_values_MeCN_DMSO_THF_Water.pdf
1268,T,100-76-5,C1C[NH+]2CCC1CC2,-,1-azoniabicyclo[2.2.2]octane,DMSO,CS(=O)C,9.8,Bases_pKa_values_MeCN_DMSO_THF_Water.pdf
1269,T,280-57-9,C1CN2CC[NH+]1CC2,49623-77-0,4-aza-1-azoniabicyclo[2.2.2]octane,DMSO,CS(=O)C,9.06,Bases_pKa_values_MeCN_DMSO_THF_Water.pdf
1270,T,110-86-1,C1=CC=[NH+]C=C1,16969-45-2,pyridin-1-ium,DMSO,CS(=O)C,3.4,Bases_pKa_values_MeCN_DMSO_THF_Water.pdf
1271,T,288-32-4,C1=CN=C[NH2+]1,-,1H-imidazol-1-ium,DMSO,CS(=O)C,6.26,Bases_pKa_values_MeCN_DMSO_THF_Water.pdf
1272,T,51-17-2,C1=CC=C2C(=C1)NC=[NH+]2,-,1H-benzimidazol-3-ium,DMSO,CS(=O)C,4.36,Bases_pKa_values_MeCN_DMSO_THF_Water.pdf
1273,T,288-36-8,C1=[NH+]NN=C1,-,2H-triazol-1-ium,DMSO,CS(=O)C,0,Bases_pKa_values_MeCN_DMSO_THF_Water.pdf
1274,T,288-13-1,C1=CN[NH+]=C1,,1H-pyrazol-2-ium,DMSO,CS(=O)C,1,Bases_pKa_values_MeCN_DMSO_THF_Water.pdf
1275,T,289-80-5,C1=CC=N[NH+]=C1,-,pyridazin-1-ium,DMSO,CS(=O)C,1.8,Bases_pKa_values_MeCN_DMSO_THF_Water.pdf
1276,T,289-95-2,C1=C[NH+]=CN=C1,-,pyrimidin-1-ium,DMSO,CS(=O)C,0.55,Bases_pKa_values_MeCN_DMSO_THF_Water.pdf
1277,T,290-37-9,C1=CN=CC=[NH+]1,-,pyrazin-1-ium,DMSO,CS(=O)C,-0.2,Bases_pKa_values_MeCN_DMSO_THF_Water.pdf
1278,T,3001-72-7,C1CC2=NCCC[NH+]2C1,-,"3,4,5,6,7,8-hexahydro-2H-pyrrolo[1,2-a]pyrimidin-5-ium",DMSO,CS(=O)C,13.4,Bases_pKa_values_MeCN_DMSO_THF_Water.pdf
1279,T,6674-22-2,C1CCC2=NCCC[NH+]2CC1,-,"3,4,5,6,7,8,9,10-octahydro-2H-pyrimido[1,2-a]azepin-5-ium",DMSO,CS(=O)C,13.9,Bases_pKa_values_MeCN_DMSO_THF_Water.pdf
1280,T,80-70-6,C[NH+](C)C(=N)N(C)C,-,"(N,N-dimethylcarbamimidoyl)-dimethylazanium",DMSO,CS(=O)C,13.2,Bases_pKa_values_MeCN_DMSO_THF_Water.pdf
1281,T,5807-14-7,C1CNC2=NCCC[NH+]2C1,-,"2,3,4,5,6,7,8,9-octahydropyrimido[1,2-a]pyrimidin-5-ium",DMSO,CS(=O)C,15.3,Bases_pKa_values_MeCN_DMSO_THF_Water.pdf
1282,T,84030-20-6,CN1CCC[NH+]2C1=NCCC2,-,"1-methyl-3,4,5,6,7,8-hexahydro-2H-pyrimido[1,2-a]pyrimidin-5-ium",DMSO,CS(=O)C,14.8,Bases_pKa_values_MeCN_DMSO_THF_Water.pdf
1283,T,102-06-7,C1=CC=C(C=C1)NC(=[NH+]C2=CC=CC=C2)N,-,[amino(anilino)methylidene]-phenylazanium,DMSO,CS(=O)C,8.6,Bases_pKa_values_MeCN_DMSO_THF_Water.pdf
1284,T,49778-01-0,CN(C)[P+](N)(N(C)C)N(C)C,-,amino-tris(dimethylamino)phosphanium,DMSO,CS(=O)C,16.4,Bases_pKa_values_MeCN_DMSO_THF_Water.pdf
1286,T,81675-81-2,CC(C)(C)N[P+](N(C)C)(N(C)C)N(C)C,-,(tert-butylamino)-tris(dimethylamino)phosphanium,DMSO,CS(=O)C,15.7,Bases_pKa_values_MeCN_DMSO_THF_Water.pdf
1287,T,161118-67-8,CC(C)(C)N[P+](N1CCCC1)(N2CCCC2)N3CCCC3,-,(tert-butylamino)-tripyrrolidin-1-ylphosphanium,DMSO,CS(=O)C,17.4,Bases_pKa_values_MeCN_DMSO_THF_Water.pdf
1288,T,35589-04-9,CN(C)[P+](NC1=CC=CC=C1)(N(C)C)N(C)C,-,anilino-tris(dimethylamino)phosphanium,DMSO,CS(=O)C,11.1,Bases_pKa_values_MeCN_DMSO_THF_Water.pdf
1289,T,165535-45-5,CCNP(=N[P+](N(C)C)(N(C)C)N(C)C)(N(C)C)N(C)C,-,[[bis(dimethylamino)-(ethylamino)-_5-phosphanylidene]amino]-tris(dimethylamino)phosphanium,DMSO,CS(=O)C,21.15,Bases_pKa_values_MeCN_DMSO_THF_Water.pdf
1290,T,111324-04-0,CC(C)(C)N[P+](N=P(N(C)C)(N(C)C)N(C)C)(N=P(N(C)C)(N(C)C)N(C)C)N=P(N(C)C)(N(C)C)N(C)C,-,(tert-butylamino)-tris[[tris(dimethylamino)-_5-phosphanylidene]amino]phosphanium,DMSO,CS(=O)C,30.25,Bases_pKa_values_MeCN_DMSO_THF_Water.pdf
1291,T,74-89-5,C[NH3+],17000-00-9,methylazanium,MeCN,CC#N,18.37,Bases_pKa_values_MeCN_DMSO_THF_Water.pdf
1292,T,75-04-7,CC[NH3+],16999-99-8,ethylazanium,MeCN,CC#N,18.4,Bases_pKa_values_MeCN_DMSO_THF_Water.pdf
1293,T,107-10-8,CCC[NH3+],,propylazanium,MeCN,CC#N,18.44,Bases_pKa_values_MeCN_DMSO_THF_Water.pdf
1294,T,75-31-0,CC(C)[NH3+],,propan-2-ylazanium,MeCN,CC#N,18.3,Bases_pKa_values_MeCN_DMSO_THF_Water.pdf
1295,T,109-73-9,CCCC[NH3+],-,butylazanium,MeCN,CC#N,18.26,Bases_pKa_values_MeCN_DMSO_THF_Water.pdf
1296,T,78-81-9,CC(C)C[NH3+],58471-06-0,2-methylpropylazanium,MeCN,CC#N,17.92,Bases_pKa_values_MeCN_DMSO_THF_Water.pdf
1297,T,100-46-9,C1=CC=C(C=C1)C[NH3+],-,benzylazanium,MeCN,CC#N,16.92,Bases_pKa_values_MeCN_DMSO_THF_Water.pdf
1298,T,62-53-3,C1=CC=C(C=C1)[NH3+],65756-50-5,phenylazanium,MeCN,CC#N,10.64,Bases_pKa_values_MeCN_DMSO_THF_Water.pdf
1299,T,7664-41-7,[NH4+],14798-03-9,azanium,MeCN,CC#N,16.46,Bases_pKa_values_MeCN_DMSO_THF_Water.pdf
1300,T,124-40-3,C[NH2+]C,49784-85-2,dimethylazanium,MeCN,CC#N,19.03,Bases_pKa_values_MeCN_DMSO_THF_Water.pdf
1301,T,109-89-7,CC[NH2+]CC,-,diethylazanium,MeCN,CC#N,18.75,Bases_pKa_values_MeCN_DMSO_THF_Water.pdf
1302,T,142-84-7,CCC[NH2+]CCC,-,dipropylazanium,MeCN,CC#N,18.8,Bases_pKa_values_MeCN_DMSO_THF_Water.pdf
1303,T,111-92-2,CCCC[NH2+]CCCC,-,dibutylazanium,MeCN,CC#N,18.31,Bases_pKa_values_MeCN_DMSO_THF_Water.pdf
1304,T,122-39-4,C1=CC=C(C=C1)[NH2+]C2=CC=CC=C2,61236-17-7,diphenylazanium,MeCN,CC#N,5.98,Bases_pKa_values_MeCN_DMSO_THF_Water.pdf
1305,T,100-61-8,C[NH2+]C1=CC=CC=C1,-,methyl(phenyl)azanium,MeCN,CC#N,10.97,Bases_pKa_values_MeCN_DMSO_THF_Water.pdf
1306,T,75-50-3,C[NH+](C)C,,trimethylazanium,MeCN,CC#N,17.61,Bases_pKa_values_MeCN_DMSO_THF_Water.pdf
1307,T,121-44-8,CC[NH+](CC)CC,17440-81-2,triethylazanium,MeCN,CC#N,18.83,Bases_pKa_values_MeCN_DMSO_THF_Water.pdf
1308,T,102-69-2,CCC[NH+](CCC)CCC,-,tripropylazanium,MeCN,CC#N,18.26,Bases_pKa_values_MeCN_DMSO_THF_Water.pdf
1309,T,102-82-9,CCCC[NH+](CCCC)CCCC,-,tributylazanium,MeCN,CC#N,18.09,Bases_pKa_values_MeCN_DMSO_THF_Water.pdf
1310,T,620-40-6,C1=CC=C(C=C1)C[NH+](CC2=CC=CC=C2)CC3=CC=CC=C3,-,tribenzylazanium,MeCN,CC#N,12.9,Bases_pKa_values_MeCN_DMSO_THF_Water.pdf
1311,T,603-34-9,C1=CC=C(C=C1)[NH+](C2=CC=CC=C2)C3=CC=CC=C3,-,triphenylazanium,MeCN,CC#N,1.28,Bases_pKa_values_MeCN_DMSO_THF_Water.pdf
1312,T,121-69-7,C[NH+](C)C1=CC=CC=C1,-,dimethyl(phenyl)azanium,MeCN,CC#N,11.47,Bases_pKa_values_MeCN_DMSO_THF_Water.pdf
1313,T,598-56-1,CC[NH+](C)C,-,ethyl(dimethyl)azanium,MeCN,CC#N,18.33,Bases_pKa_values_MeCN_DMSO_THF_Water.pdf
1314,T,616-39-7,CC[NH+](C)CC,-,diethyl(methyl)azanium,MeCN,CC#N,18.2,Bases_pKa_values_MeCN_DMSO_THF_Water.pdf
1315,T,4458-31-5,CCC[NH+](CC)CC,-,diethyl(propyl)azanium,MeCN,CC#N,18.2,Bases_pKa_values_MeCN_DMSO_THF_Water.pdf
1316,T,107-15-3,C(CN)[NH3+],-,2-aminoethylazanium,MeCN,CC#N,18.46,Bases_pKa_values_MeCN_DMSO_THF_Water.pdf
1317,T,109-76-2,C(C[NH3+])CN,-,3-aminopropylazanium,MeCN,CC#N,19.76,Bases_pKa_values_MeCN_DMSO_THF_Water.pdf
1318,T,110-60-1,C(CCN)C[NH3+],-,4-aminobutylazanium,MeCN,CC#N,20.12,Bases_pKa_values_MeCN_DMSO_THF_Water.pdf
1319,T,462-94-2,C(CC[NH3+])CCN,-,5-aminopentylazanium,MeCN,CC#N,19.14,Bases_pKa_values_MeCN_DMSO_THF_Water.pdf
1320,T,110-18-9,C[NH+](C)CCN(C)C,-,2-(dimethylamino)ethyl-dimethylazanium,MeCN,CC#N,18.69,Bases_pKa_values_MeCN_DMSO_THF_Water.pdf
1321,T,110-95-2,C[NH+](C)CCCN(C)C,-,3-(dimethylamino)propyl-dimethylazanium,MeCN,CC#N,19.28,Bases_pKa_values_MeCN_DMSO_THF_Water.pdf
1322,T,111-51-3,C[NH+](C)CCCCN(C)C,-,4-(dimethylamino)butyl-dimethylazanium,MeCN,CC#N,19.96,Bases_pKa_values_MeCN_DMSO_THF_Water.pdf
1323,T,479-27-6,C1=CC2=C(C(=C1)[NH3+])C(=CC=C2)N,-,(8-aminonaphthalen-1-yl)azanium,MeCN,CC#N,10.99,Bases_pKa_values_MeCN_DMSO_THF_Water.pdf
1324,T,20734-58-1,C[NH+](C)C1=CC=CC2=C1C(=CC=C2)N(C)C,-,[8-(dimethylamino)naphthalen-1-yl]-dimethylazanium,MeCN,CC#N,18.63,Bases_pKa_values_MeCN_DMSO_THF_Water.pdf
1325,T,302-01-2,[NH3+]N,18500-32-8,aminoazanium,MeCN,CC#N,16.61,Bases_pKa_values_MeCN_DMSO_THF_Water.pdf
1326,T,110-89-4,C1CC[NH2+]CC1,17523-59-0,piperidin-1-ium,MeCN,CC#N,19.35,Bases_pKa_values_MeCN_DMSO_THF_Water.pdf
1327,T,626-67-5,C[NH+]1CCCCC1,-,1-methylpiperidin-1-ium,MeCN,CC#N,18.24,Bases_pKa_values_MeCN_DMSO_THF_Water.pdf
1328,T,110-85-0,C1CNCC[NH2+]1,8057-14-5,piperazin-1-ium,MeCN,CC#N,18.69,Bases_pKa_values_MeCN_DMSO_THF_Water.pdf
1329,T,106-58-1,C[NH+]1CCN(CC1)C,-,"1,4-dimethylpiperazin-1-ium",MeCN,CC#N,17.38,Bases_pKa_values_MeCN_DMSO_THF_Water.pdf
1330,T,123-75-1,C1CC[NH2+]C1,84316-19-8,pyrrolidin-1-ium,MeCN,CC#N,19.62,Bases_pKa_values_MeCN_DMSO_THF_Water.pdf
1331,T,100-76-5,C1C[NH+]2CCC1CC2,-,1-azoniabicyclo[2.2.2]octane,MeCN,CC#N,19.7,Bases_pKa_values_MeCN_DMSO_THF_Water.pdf