,solute,solute SMILES,computed CAS,computed IUPAC,solvent,solvent SMILES,pka,ref
1518,(3-NO2-C6H4SO2)2NH,C1=CC(=CC(=C1)S(=O)(=O)NS(=O)(=O)C2=CC=CC(=C2)[N+](=O)[O-])[N+](=O)[O-],116082-80-5,3-nitro-N-(3-nitrophenyl)sulfonylbenzenesulfonamide,MeCN,CC#N,8.15,leito_acids
59,3-nitro-benzenesulfonic acid,C1=CC(=CC(=C1)S(=O)(=O)O)[N+](=O)[O-],98-47-5,3-nitrobenzenesulfonic acid,MeCN,CC#N,6.65,MeCN_Acids_COSMO-RS_2008_Table.pdf
436,3-nitro-benzenesulfonic acid,C1=CC(=CC(=C1)S(=O)(=O)O)[N+](=O)[O-],98-47-5,3-nitrobenzenesulfonic acid,MeCN,CC#N,6.71,DCE_2011_pKa_Table_MeCN.pdf
943,98-47-5,C1=CC(=CC(=C1)S(=O)(=O)O)[N+](=O)[O-],98-47-5,3-nitrobenzenesulfonic acid,MeCN,CC#N,6.4,Ejoc202001649-sup-00001-misc_information.pdf
1532,3-NO2-C6H4SO3H,C1=CC(=CC(=C1)S(=O)(=O)O)[N+](=O)[O-],98-47-5,3-nitrobenzenesulfonic acid,MeCN,CC#N,6.7,leito_acids
195,4-Nitrophenol,C1=CC(=CC=C1[N+](=O)[O-])O,100-02-7,4-nitrophenol,MeCN,CC#N,20.7,MeCN_Acids_COSMO-RS_2008_Table.pdf
148,p-Nitrobenzenesulfonamide,C1=CC(=CC=C1[N+](=O)[O-])S(=O)(=O)N,6325-93-5,4-nitrobenzenesulfonamide,MeCN,CC#N,22.91,MeCN_Acids_COSMO-RS_2008_Table.pdf
793,6325-93-5,C1=CC(=CC=C1[N+](=O)[O-])S(=O)(=O)N,6325-93-5,4-nitrobenzenesulfonamide,MeCN,CC#N,24.57,Ejoc202001649-sup-00001-misc_information.pdf
1145,6325-93-5,C1=CC(=CC=C1[N+](=O)[O-])S(=O)(=O)N,6325-93-5,4-nitrobenzenesulfonamide,DMF,CN(C)C=O,15.49,Ejoc202001649-sup-00001-misc_information.pdf
457,4-NO2-C6H4SO2NHTf,C1=CC(=CC=C1[N+](=O)[O-])S(=O)(=O)NS(=O)(=O)C(F)(F)F,174788-91-1,4-nitro-N-(trifluoromethylsulfonyl)benzenesulfonamide,MeCN,CC#N,4.08,DCE_2011_pKa_Table_MeCN.pdf
503,4-NO2-C6H4SO2NHTf,C1=CC(=CC=C1[N+](=O)[O-])S(=O)(=O)NS(=O)(=O)C(F)(F)F,174788-91-1,4-nitro-N-(trifluoromethylsulfonyl)benzenesulfonamide,MeCN,CC#N,4.08,a_unified_view_to_bronsted_acidity_scales.pdf
740,4-NO2-C6H4SO2NHTf,C1=CC(=CC=C1[N+](=O)[O-])S(=O)(=O)NS(=O)(=O)C(F)(F)F,174788-91-1,4-nitro-N-(trifluoromethylsulfonyl)benzenesulfonamide,MeCN,CC#N,4.04,pKa_values_of_acids_in_acetonitrile.pdf
1558,4-NO2-C6H4SO2NHTf,C1=CC(=CC=C1[N+](=O)[O-])S(=O)(=O)NS(=O)(=O)C(F)(F)F,174788-91-1,4-nitro-N-(trifluoromethylsulfonyl)benzenesulfonamide,MeCN,CC#N,4.08,leito_acids
1603,4-NO2-C6H4SO2NHTf,C1=CC(=CC=C1[N+](=O)[O-])S(=O)(=O)NS(=O)(=O)C(F)(F)F,174788-91-1,4-nitro-N-(trifluoromethylsulfonyl)benzenesulfonamide,DCE,C(CCl)Cl,37.1,leito_acids
80,(4-NO2-C6H4-SO2)2NH,C1=CC(=CC=C1[N+](=O)[O-])S(=O)(=O)NS(=O)(=O)C2=CC=C(C=C2)[N+](=O)[O-],7/6/09,4-nitro-N-(4-nitrophenyl)sulfonylbenzenesulfonamide,MeCN,CC#N,8.19,MeCN_Acids_COSMO-RS_2008_Table.pdf
425,(4-NO2-C6H4SO2)2NH,C1=CC(=CC=C1[N+](=O)[O-])S(=O)(=O)NS(=O)(=O)C2=CC=C(C=C2)[N+](=O)[O-],7/6/09,4-nitro-N-(4-nitrophenyl)sulfonylbenzenesulfonamide,MeCN,CC#N,8.19,DCE_2011_pKa_Table_MeCN.pdf
492,(4-NO2-C6H4-SO2)2NH,C1=CC(=CC=C1[N+](=O)[O-])S(=O)(=O)NS(=O)(=O)C2=CC=C(C=C2)[N+](=O)[O-],7/6/09,4-nitro-N-(4-nitrophenyl)sulfonylbenzenesulfonamide,MeCN,CC#N,8.19,a_unified_view_to_bronsted_acidity_scales.pdf
696,(4-NO2-C6H4-SO2)2NH,C1=CC(=CC=C1[N+](=O)[O-])S(=O)(=O)NS(=O)(=O)C2=CC=C(C=C2)[N+](=O)[O-],7/6/09,4-nitro-N-(4-nitrophenyl)sulfonylbenzenesulfonamide,MeCN,CC#N,8.15,pKa_values_of_acids_in_acetonitrile.pdf
925,(4-NO2-C6H4-SO2)2NH,C1=CC(=CC=C1[N+](=O)[O-])S(=O)(=O)NS(=O)(=O)C2=CC=C(C=C2)[N+](=O)[O-],7/6/09,4-nitro-N-(4-nitrophenyl)sulfonylbenzenesulfonamide,MeCN,CC#N,8.15,Ejoc202001649-sup-00001-misc_information.pdf
1121,(4-NO2-C6H4-SO2)2NH,C1=CC(=CC=C1[N+](=O)[O-])S(=O)(=O)NS(=O)(=O)C2=CC=C(C=C2)[N+](=O)[O-],7/6/09,4-nitro-N-(4-nitrophenyl)sulfonylbenzenesulfonamide,DCE,C(CCl)Cl,41.1,Ejoc202001649-sup-00001-misc_information.pdf
1516,(4-NO2-C6H4SO2)2NH,C1=CC(=CC=C1[N+](=O)[O-])S(=O)(=O)NS(=O)(=O)C2=CC=C(C=C2)[N+](=O)[O-],7/6/09,4-nitro-N-(4-nitrophenyl)sulfonylbenzenesulfonamide,MeCN,CC#N,8.19,leito_acids
1592,(4-NO2-C6H4SO2)2NH,C1=CC(=CC=C1[N+](=O)[O-])S(=O)(=O)NS(=O)(=O)C2=CC=C(C=C2)[N+](=O)[O-],7/6/09,4-nitro-N-(4-nitrophenyl)sulfonylbenzenesulfonamide,DCE,C(CCl)Cl,41.1,leito_acids
421,4-NO2-C6H4SO2NHSO2C6H4-4-Cl,C1=CC(=CC=C1[N+](=O)[O-])S(=O)(=O)NS(=O)(=O)C2=CC=C(C=C2)Cl,95468-16-9,N-(4-chlorophenyl)sulfonyl-4-nitrobenzenesulfonamide,MeCN,CC#N,9.17,DCE_2011_pKa_Table_MeCN.pdf
490,4-NO2-C6H4SO2NHSO2C6H4-4-Cl,C1=CC(=CC=C1[N+](=O)[O-])S(=O)(=O)NS(=O)(=O)C2=CC=C(C=C2)Cl,95468-16-9,N-(4-chlorophenyl)sulfonyl-4-nitrobenzenesulfonamide,MeCN,CC#N,9.17,a_unified_view_to_bronsted_acidity_scales.pdf
689,4-NO2-C6H4SO2NHSO2C6H4-4-Cl,C1=CC(=CC=C1[N+](=O)[O-])S(=O)(=O)NS(=O)(=O)C2=CC=C(C=C2)Cl,95468-16-9,N-(4-chlorophenyl)sulfonyl-4-nitrobenzenesulfonamide,MeCN,CC#N,9.17,pKa_values_of_acids_in_acetonitrile.pdf
1512,4-NO2-C6H4SO2NHSO2C6H4-4-Cl,C1=CC(=CC=C1[N+](=O)[O-])S(=O)(=O)NS(=O)(=O)C2=CC=C(C=C2)Cl,95468-16-9,N-(4-chlorophenyl)sulfonyl-4-nitrobenzenesulfonamide,MeCN,CC#N,9.17,leito_acids
1590,4-NO2-C6H4SO2NHSO2C6H4-4-Cl,C1=CC(=CC=C1[N+](=O)[O-])S(=O)(=O)NS(=O)(=O)C2=CC=C(C=C2)Cl,95468-16-9,N-(4-chlorophenyl)sulfonyl-4-nitrobenzenesulfonamide,DCE,C(CCl)Cl,42.4,leito_acids
57,4-nitro-benzenesulfonic acid,C1=CC(=CC=C1[N+](=O)[O-])S(=O)(=O)O,138-42-1,4-nitrobenzenesulfonic acid,MeCN,CC#N,6.6,MeCN_Acids_COSMO-RS_2008_Table.pdf
438,4-nitro-benzenesulfonic acid,C1=CC(=CC=C1[N+](=O)[O-])S(=O)(=O)O,138-42-1,4-nitrobenzenesulfonic acid,MeCN,CC#N,6.4,DCE_2011_pKa_Table_MeCN.pdf
717,4-NO2-C6H4SO3H,C1=CC(=CC=C1[N+](=O)[O-])S(=O)(=O)O,138-42-1,4-nitrobenzenesulfonic acid,MeCN,CC#N,6.3,pKa_values_of_acids_in_acetonitrile.pdf
946,138-42-1,C1=CC(=CC=C1[N+](=O)[O-])S(=O)(=O)O,138-42-1,4-nitrobenzenesulfonic acid,MeCN,CC#N,6.3,Ejoc202001649-sup-00001-misc_information.pdf
1537,4-NO2-C6H4SO3H,C1=CC(=CC=C1[N+](=O)[O-])S(=O)(=O)O,138-42-1,4-nitrobenzenesulfonic acid,MeCN,CC#N,6.4,leito_acids
365,4-nitroAniline,C1=CC(=CC=C1[NH3+])[N+](=O)[O-],,(4-nitrophenyl)azanium,MeCN,CC#N,6.22,pKa_values_of_nitrogen_heterocycles.pdf
347,4-bromoAniline,C1=CC(=CC=C1[NH3+])Br,,(4-bromophenyl)azanium,MeCN,CC#N,9.43,pKa_values_of_nitrogen_heterocycles.pdf
454,4-NO2-C6H4C(=NTf)NHTf,C1=CC(=CC=C1C(=NS(=O)(=O)C(F)(F)F)NS(=O)(=O)C(F)(F)F)[N+](=O)[O-],500721-97-1,"4-nitro-N,N'-bis(trifluoromethylsulfonyl)benzenecarboximidamide",MeCN,CC#N,4.67,DCE_2011_pKa_Table_MeCN.pdf
737,4-NO2-C6H4C(=NTf)NHTf,C1=CC(=CC=C1C(=NS(=O)(=O)C(F)(F)F)NS(=O)(=O)C(F)(F)F)[N+](=O)[O-],500721-97-1,"4-nitro-N,N'-bis(trifluoromethylsulfonyl)benzenecarboximidamide",MeCN,CC#N,4.63,pKa_values_of_acids_in_acetonitrile.pdf
1555,4-NO2-C6H4C(=NTf)NHTf,C1=CC(=CC=C1C(=NS(=O)(=O)C(F)(F)F)NS(=O)(=O)C(F)(F)F)[N+](=O)[O-],500721-97-1,"4-nitro-N,N'-bis(trifluoromethylsulfonyl)benzenecarboximidamide",MeCN,CC#N,4.67,leito_acids
1600,4-NO2-C6H4C(=NTf)NHTf,C1=CC(=CC=C1C(=NS(=O)(=O)C(F)(F)F)NS(=O)(=O)C(F)(F)F)[N+](=O)[O-],500721-97-1,"4-nitro-N,N'-bis(trifluoromethylsulfonyl)benzenecarboximidamide",DCE,C(CCl)Cl,31.7,leito_acids
448,4-Cl-C6H4C(=NTf)NHTf,C1=CC(=CC=C1C(=NS(=O)(=O)C(F)(F)F)NS(=O)(=O)C(F)(F)F)Cl,500721-95-9,"4-chloro-N,N'-bis(trifluoromethylsulfonyl)benzenecarboximidamide",MeCN,CC#N,5.24,DCE_2011_pKa_Table_MeCN.pdf
731,4-Cl-C6H4C(=NTf)NHTf,C1=CC(=CC=C1C(=NS(=O)(=O)C(F)(F)F)NS(=O)(=O)C(F)(F)F)Cl,500721-95-9,"4-chloro-N,N'-bis(trifluoromethylsulfonyl)benzenecarboximidamide",MeCN,CC#N,5.2,pKa_values_of_acids_in_acetonitrile.pdf
1550,4-Cl-C6H4C(=NTf)NHTf,C1=CC(=CC=C1C(=NS(=O)(=O)C(F)(F)F)NS(=O)(=O)C(F)(F)F)Cl,500721-95-9,"4-chloro-N,N'-bis(trifluoromethylsulfonyl)benzenecarboximidamide",MeCN,CC#N,5.24,leito_acids
1598,4-Cl-C6H4C(=NTf)NHTf,C1=CC(=CC=C1C(=NS(=O)(=O)C(F)(F)F)NS(=O)(=O)C(F)(F)F)Cl,500721-95-9,"4-chloro-N,N'-bis(trifluoromethylsulfonyl)benzenecarboximidamide",DCE,C(CCl)Cl,32.7,leito_acids
63,39062-98-1,C1=CC(=CC=C1C(=O)NS(=O)(=O)C(F)(F)F)[N+](=O)[O-],39062-98-1,4-nitro-N-(trifluoromethylsulfonyl)benzamide,MeCN,CC#N,9.49,MeCN_Acids_COSMO-RS_2008_Table.pdf
917,39062-98-1,C1=CC(=CC=C1C(=O)NS(=O)(=O)C(F)(F)F)[N+](=O)[O-],39062-98-1,4-nitro-N-(trifluoromethylsulfonyl)benzamide,MeCN,CC#N,9.49,Ejoc202001649-sup-00001-misc_information.pdf
1504,4-Cl-C6H4C(=O)NHTf,C1=CC(=CC=C1C(=O)NS(=O)(=O)C(F)(F)F)Cl,39062-99-2,4-chloro-N-(trifluoromethylsulfonyl)benzamide,MeCN,CC#N,10.36,leito_acids
410,4-F-C6H4C(=O)NHTf,C1=CC(=CC=C1C(=O)NS(=O)(=O)C(F)(F)F)F,39063-00-8,4-fluoro-N-(trifluoromethylsulfonyl)benzamide,MeCN,CC#N,10.65,DCE_2011_pKa_Table_MeCN.pdf
1501,4-F-C6H4C(=O)NHTf,C1=CC(=CC=C1C(=O)NS(=O)(=O)C(F)(F)F)F,39063-00-8,4-fluoro-N-(trifluoromethylsulfonyl)benzamide,MeCN,CC#N,10.65,leito_acids
178,4-Nitrobenzoicacid,C1=CC(=CC=C1C(=O)O)[N+](=O)[O-],62-23-7,4-nitrobenzoic acid,MeCN,CC#N,18.7,MeCN_Acids_COSMO-RS_2008_Table.pdf
149,4-Bromobenzoicacid,C1=CC(=CC=C1C(=O)O)Br,586-76-5,4-bromobenzoic acid,MeCN,CC#N,20.3,MeCN_Acids_COSMO-RS_2008_Table.pdf
160,"1,4-Benzenedicarboxylicacid",C1=CC(=CC=C1C(=O)O)C(=O)O,100-21-0,terephthalic acid,MeCN,CC#N,19.7,MeCN_Acids_COSMO-RS_2008_Table.pdf
150,4-Hydroxybenzoicacid,C1=CC(=CC=C1C(=O)O)O,99-96-7,4-hydroxybenzoic acid,MeCN,CC#N,20.8,MeCN_Acids_COSMO-RS_2008_Table.pdf
28,7077-65-8,C1=CC(=CC=C1C(C#N)C#N)[N+](=O)[O-],7077-65-8,2-(4-nitrophenyl)propanedinitrile,MeCN,CC#N,11.61,MeCN_Acids_COSMO-RS_2008_Table.pdf
661,4-NO2-C6H4CH(CN)2,C1=CC(=CC=C1C(C#N)C#N)[N+](=O)[O-],7077-65-8,2-(4-nitrophenyl)propanedinitrile,MeCN,CC#N,11.61,pKa_values_of_acids_in_acetonitrile.pdf
890,7077-65-8,C1=CC(=CC=C1C(C#N)C#N)[N+](=O)[O-],7077-65-8,2-(4-nitrophenyl)propanedinitrile,MeCN,CC#N,11.61,Ejoc202001649-sup-00001-misc_information.pdf
1013,7077-65-8,C1=CC(=CC=C1C(C#N)C#N)[N+](=O)[O-],7077-65-8,2-(4-nitrophenyl)propanedinitrile,H2O,O,2.3,Ejoc202001649-sup-00001-misc_information.pdf
1494,4-NO2-C6H4CH(CN)2,C1=CC(=CC=C1C(C#N)C#N)[N+](=O)[O-],7077-65-8,2-(4-nitrophenyl)propanedinitrile,MeCN,CC#N,11.61,leito_acids
109,Bis(4-nitrophenyl)acetonitrile,C1=CC(=CC=C1C(C#N)C2=CC=C(C=C2)[N+](=O)[O-])[N+](=O)[O-],-,"2,2-bis(4-nitrophenyl)acetonitrile",MeCN,CC#N,19,MeCN_Acids_COSMO-RS_2008_Table.pdf
352,4-trifluoromethylAniline,C1=CC(=CC=C1C(F)(F)F)[NH3+],,(4-(trifluoromethyl)phenyl)azanium,MeCN,CC#N,8.03,pKa_values_of_nitrogen_heterocycles.pdf
212,4-Trifluoromethylphenol,C1=CC(=CC=C1C(F)(F)F)O,402-45-9,4-(trifluoromethyl)phenol,MeCN,CC#N,25.54,MeCN_Acids_COSMO-RS_2008_Table.pdf
552,4-trifluoromethylPhenol,C1=CC(=CC=C1C(F)(F)F)O,402-45-9,4-(trifluoromethyl)phenol,MeCN,CC#N,25.5,pKa_values_of_acids_in_acetonitrile.pdf
782,402-45-9,C1=CC(=CC=C1C(F)(F)F)O,402-45-9,4-(trifluoromethyl)phenol,MeCN,CC#N,25.5,Ejoc202001649-sup-00001-misc_information.pdf
984,402-45-9,C1=CC(=CC=C1C(F)(F)F)O,402-45-9,4-(trifluoromethyl)phenol,H2O,O,8.68,Ejoc202001649-sup-00001-misc_information.pdf
1038,402-45-9,C1=CC(=CC=C1C(F)(F)F)O,402-45-9,4-(trifluoromethyl)phenol,DMSO,CS(=O)C,14.6,Ejoc202001649-sup-00001-misc_information.pdf
1429,4-CF3-phenol,C1=CC(=CC=C1C(F)(F)F)O,402-45-9,4-(trifluoromethyl)phenol,MeCN,CC#N,25.54,leito_acids
784,830-43-3,C1=CC(=CC=C1C(F)(F)F)S(=O)(=O)N,830-43-3,4-(trifluoromethyl)benzenesulfonamide,MeCN,CC#N,25.24,Ejoc202001649-sup-00001-misc_information.pdf
985,830-43-3,C1=CC(=CC=C1C(F)(F)F)S(=O)(=O)N,830-43-3,4-(trifluoromethyl)benzenesulfonamide,H2O,O,9.64,Ejoc202001649-sup-00001-misc_information.pdf
111,4-Nitrophenylnitromethane,C1=CC(=CC=C1C[N+](=O)[O-])[N+](=O)[O-],1610-26-0,1-nitro-4-(nitromethyl)benzene,MeCN,CC#N,20.7,MeCN_Acids_COSMO-RS_2008_Table.pdf
204,4-Cyanophenol,C1=CC(=CC=C1C#N)O,767-00-0,4-hydroxybenzonitrile,MeCN,CC#N,22.7,MeCN_Acids_COSMO-RS_2008_Table.pdf
105,4-Nitrophenylacetonitrile,C1=CC(=CC=C1CC#N)[N+](=O)[O-],555-21-5,2-(4-nitrophenyl)acetonitrile,MeCN,CC#N,25.4,MeCN_Acids_COSMO-RS_2008_Table.pdf
796,194222-97-4,C1=CC(=CC=C1CS(=O)(=O)C(F)(F)F)C(F)(F)F,194222-97-4,1-(trifluoromethyl)-4-(trifluoromethylsulfonylmethyl)benzene,MeCN,CC#N,24.44,Ejoc202001649-sup-00001-misc_information.pdf
1046,194222-97-4,C1=CC(=CC=C1CS(=O)(=O)C(F)(F)F)C(F)(F)F,194222-97-4,1-(trifluoromethyl)-4-(trifluoromethylsulfonylmethyl)benzene,DMSO,CS(=O)C,11.95,Ejoc202001649-sup-00001-misc_information.pdf
764,2408-04-0,C1=CC(=CC=C1CS(=O)(=O)C(F)(F)F)F,2408-04-0,1-fluoro-4-(trifluoromethylsulfonylmethyl)benzene,MeCN,CC#N,27,Ejoc202001649-sup-00001-misc_information.pdf
146,p-Fluorobenzenesulfonamide,C1=CC(=CC=C1F)S(=O)(=O)N,402-46-0,4-fluorobenzenesulfonamide,MeCN,CC#N,24.19,MeCN_Acids_COSMO-RS_2008_Table.pdf
776,402-46-0,C1=CC(=CC=C1F)S(=O)(=O)N,402-46-0,4-fluorobenzenesulfonamide,MeCN,CC#N,26.16,Ejoc202001649-sup-00001-misc_information.pdf
982,402-46-0,C1=CC(=CC=C1F)S(=O)(=O)N,402-46-0,4-fluorobenzenesulfonamide,H2O,O,10.02,Ejoc202001649-sup-00001-misc_information.pdf
1035,402-46-0,C1=CC(=CC=C1F)S(=O)(=O)N,402-46-0,4-fluorobenzenesulfonamide,DMSO,CS(=O)C,15.9,Ejoc202001649-sup-00001-misc_information.pdf
1142,402-46-0,C1=CC(=CC=C1F)S(=O)(=O)N,402-46-0,4-fluorobenzenesulfonamide,DMF,CN(C)C=O,16.67,Ejoc202001649-sup-00001-misc_information.pdf
756,101-20-2,C1=CC(=CC=C1NC(=O)NC2=CC(=C(C=C2)Cl)Cl)Cl,101-20-2,"1-(4-chlorophenyl)-3-(3,4-dichlorophenyl)urea",MeCN,CC#N,27.95,Ejoc202001649-sup-00001-misc_information.pdf
774,1821-27-8,C1=CC(=CC=C1NC2=CC=C(C=C2)[N+](=O)[O-])[N+](=O)[O-],1821-27-8,4-nitro-N-(4-nitrophenyl)aniline,MeCN,CC#N,26.18,Ejoc202001649-sup-00001-misc_information.pdf
193,4-Bromophenol,C1=CC(=CC=C1O)Br,106-41-2,4-bromophenol,MeCN,CC#N,25.53,MeCN_Acids_COSMO-RS_2008_Table.pdf
194,4-Chlorophenol,C1=CC(=CC=C1O)Cl,106-48-9,4-chlorophenol,MeCN,CC#N,25.44,MeCN_Acids_COSMO-RS_2008_Table.pdf
145,p-Bromobenzenesulfonamide,C1=CC(=CC=C1S(=O)(=O)N)Br,701-34-8,4-bromobenzenesulfonamide,MeCN,CC#N,24.04,MeCN_Acids_COSMO-RS_2008_Table.pdf
780,98-64-6,C1=CC(=CC=C1S(=O)(=O)N)Cl,98-64-6,4-chlorobenzenesulfonamide,MeCN,CC#N,25.85,Ejoc202001649-sup-00001-misc_information.pdf
983,98-64-6,C1=CC(=CC=C1S(=O)(=O)N)Cl,98-64-6,4-chlorobenzenesulfonamide,H2O,O,9.79,Ejoc202001649-sup-00001-misc_information.pdf
1037,98-64-6,C1=CC(=CC=C1S(=O)(=O)N)Cl,98-64-6,4-chlorobenzenesulfonamide,DMSO,CS(=O)C,15.6,Ejoc202001649-sup-00001-misc_information.pdf
1143,98-64-6,C1=CC(=CC=C1S(=O)(=O)N)Cl,98-64-6,4-chlorobenzenesulfonamide,DMF,CN(C)C=O,16.58,Ejoc202001649-sup-00001-misc_information.pdf
1553,4-Cl-C6H4SO2NHTf,C1=CC(=CC=C1S(=O)(=O)NS(=O)(=O)C(F)(F)F)Cl,174788-89-7,4-chloro-N-(trifluoromethylsulfonyl)benzenesulfonamide,MeCN,CC#N,5.02,leito_acids
78,2725-55-5,C1=CC(=CC=C1S(=O)(=O)NS(=O)(=O)C2=CC=C(C=C2)Cl)Cl,2725-55-5,4-chloro-N-(4-chlorophenyl)sulfonylbenzenesulfonamide,MeCN,CC#N,10.2,MeCN_Acids_COSMO-RS_2008_Table.pdf
415,(4-Cl-C6H4SO2)2NH,C1=CC(=CC=C1S(=O)(=O)NS(=O)(=O)C2=CC=C(C=C2)Cl)Cl,2725-55-5,4-chloro-N-(4-chlorophenyl)sulfonylbenzenesulfonamide,MeCN,CC#N,10.2,DCE_2011_pKa_Table_MeCN.pdf
680,(4-Cl-C6H4-SO2)2NH,C1=CC(=CC=C1S(=O)(=O)NS(=O)(=O)C2=CC=C(C=C2)Cl)Cl,2725-55-5,4-chloro-N-(4-chlorophenyl)sulfonylbenzenesulfonamide,MeCN,CC#N,10.2,pKa_values_of_acids_in_acetonitrile.pdf
909,2725-55-5,C1=CC(=CC=C1S(=O)(=O)NS(=O)(=O)C2=CC=C(C=C2)Cl)Cl,2725-55-5,4-chloro-N-(4-chlorophenyl)sulfonylbenzenesulfonamide,MeCN,CC#N,10.2,Ejoc202001649-sup-00001-misc_information.pdf
1157,2725-55-5,C1=CC(=CC=C1S(=O)(=O)NS(=O)(=O)C2=CC=C(C=C2)Cl)Cl,2725-55-5,4-chloro-N-(4-chlorophenyl)sulfonylbenzenesulfonamide,DMF,CN(C)C=O,3.46,Ejoc202001649-sup-00001-misc_information.pdf
1506,(4-Cl-C6H4SO2)2NH,C1=CC(=CC=C1S(=O)(=O)NS(=O)(=O)C2=CC=C(C=C2)Cl)Cl,2725-55-5,4-chloro-N-(4-chlorophenyl)sulfonylbenzenesulfonamide,MeCN,CC#N,10.2,leito_acids
60,4-chloro-benzenesulfonicacid,C1=CC(=CC=C1S(=O)(=O)O)Cl,98-66-8,4-chlorobenzenesulfonic acid,MeCN,CC#N,7.16,MeCN_Acids_COSMO-RS_2008_Table.pdf
434,4-chloro-benzenesulfonicacid,C1=CC(=CC=C1S(=O)(=O)O)Cl,98-66-8,4-chlorobenzenesulfonic acid,MeCN,CC#N,7.21,DCE_2011_pKa_Table_MeCN.pdf
936,98-66-8,C1=CC(=CC=C1S(=O)(=O)O)Cl,98-66-8,4-chlorobenzenesulfonic acid,MeCN,CC#N,7,Ejoc202001649-sup-00001-misc_information.pdf
1525,4-Cl-C6H4SO3H,C1=CC(=CC=C1S(=O)(=O)O)Cl,98-66-8,4-chlorobenzenesulfonic acid,MeCN,CC#N,7.2,leito_acids
529,6-nitroIndole,C1=CC(=CC2=C1C=CN2)[N+](=O)[O-],4769-96-4,6-nitro-1H-indole,MeCN,CC#N,27.79,pKa_values_of_acids_in_acetonitrile.pdf
758,4769-96-4,C1=CC(=CC2=C1C=CN2)[N+](=O)[O-],4769-96-4,6-nitro-1H-indole,MeCN,CC#N,27.79,Ejoc202001649-sup-00001-misc_information.pdf
978,4769-96-4,C1=CC(=CC2=C1C=CN2)[N+](=O)[O-],4769-96-4,6-nitro-1H-indole,H2O,O,14.4,Ejoc202001649-sup-00001-misc_information.pdf
239,Pyridine-H+,C1=CC=[N+]C=C1,16969-45-2,pyridin-1-ium,MeCN,CC#N,12.53,pKa_values_of_acids_and_bases_in_MeCN_DCE_DMSO_H2O_THF_C7_DME.pdf
271,Pyridine-H+,C1=CC=[N+]C=C1,16969-45-2,pyridin-1-ium,DMSO,CS(=O)C,3.45,pKa_values_of_acids_and_bases_in_MeCN_DCE_DMSO_H2O_THF_C7_DME.pdf
287,Pyridine-H+,C1=CC=[N+]C=C1,16969-45-2,pyridin-1-ium,H2O,O,5.25,pKa_values_of_acids_and_bases_in_MeCN_DCE_DMSO_H2O_THF_C7_DME.pdf
297,Pyridine-H+,C1=CC=[N+]C=C1,16969-45-2,pyridin-1-ium,THF,C1CCOC1,5.5,pKa_values_of_acids_and_bases_in_MeCN_DCE_DMSO_H2O_THF_C7_DME.pdf
330,"2,2'-Bipyridine",C1=CC=[NH+]C(=C1)C2=CC=CC=N2,,2-pyridin-1-ium-2-ylpyridine,MeCN,CC#N,12.26,pKa_values_of_nitrogen_heterocycles.pdf
385,"2,2'-Bipyridine",C1=CC=[NH+]C(=C1)C2=CC=CC=N2,,2-pyridin-1-ium-2-ylpyridine,H2O,O,4.54,pKa_values_of_nitrogen_heterocycles.pdf
1202,366-18-7,C1=CC=[NH+]C(=C1)C2=CC=CC=N2,,2-pyridin-1-ium-2-ylpyridine,H2O,O,4.23,Bases_pKa_values_MeCN_DMSO_THF_Water.pdf
1335,366-18-7,C1=CC=[NH+]C(=C1)C2=CC=CC=N2,,2-pyridin-1-ium-2-ylpyridine,MeCN,CC#N,12.27,Bases_pKa_values_MeCN_DMSO_THF_Water.pdf
362,2-Cl-Pyridine,C1=CC=[NH+]C(=C1)Cl,,2-chloropyridin-1-ium,MeCN,CC#N,6.79,pKa_values_of_nitrogen_heterocycles.pdf
328,Pyridine,C1=CC=[NH+]C=C1,16969-45-2,pyridin-1-ium,MeCN,CC#N,12.53,pKa_values_of_nitrogen_heterocycles.pdf
383,Pyridine,C1=CC=[NH+]C=C1,16969-45-2,pyridin-1-ium,H2O,O,5.23,pKa_values_of_nitrogen_heterocycles.pdf
1201,110-86-1,C1=CC=[NH+]C=C1,16969-45-2,pyridin-1-ium,H2O,O,5.23,Bases_pKa_values_MeCN_DMSO_THF_Water.pdf
1270,110-86-1,C1=CC=[NH+]C=C1,16969-45-2,pyridin-1-ium,DMSO,CS(=O)C,3.4,Bases_pKa_values_MeCN_DMSO_THF_Water.pdf
1334,110-86-1,C1=CC=[NH+]C=C1,16969-45-2,pyridin-1-ium,MeCN,CC#N,12.53,Bases_pKa_values_MeCN_DMSO_THF_Water.pdf
1402,110-86-1,C1=CC=[NH+]C=C1,16969-45-2,pyridin-1-ium,THF,C1CCOC1,5.5,Bases_pKa_values_MeCN_DMSO_THF_Water.pdf
49,88-75-5,C1=CC=C(C(=C1)[N+](=O)[O-])O,88-75-5,2-nitrophenol,MeCN,CC#N,22.85,MeCN_Acids_COSMO-RS_2008_Table.pdf
582,2-nitroPhenol,C1=CC=C(C(=C1)[N+](=O)[O-])O,88-75-5,2-nitrophenol,MeCN,CC#N,22.85,pKa_values_of_acids_in_acetonitrile.pdf
812,88-75-5,C1=CC=C(C(=C1)[N+](=O)[O-])O,88-75-5,2-nitrophenol,MeCN,CC#N,22.85,Ejoc202001649-sup-00001-misc_information.pdf
994,88-75-5,C1=CC=C(C(=C1)[N+](=O)[O-])O,88-75-5,2-nitrophenol,H2O,O,7.22,Ejoc202001649-sup-00001-misc_information.pdf
1055,88-75-5,C1=CC=C(C(=C1)[N+](=O)[O-])O,88-75-5,2-nitrophenol,DMSO,CS(=O)C,11,Ejoc202001649-sup-00001-misc_information.pdf
1147,88-75-5,C1=CC=C(C(=C1)[N+](=O)[O-])O,88-75-5,2-nitrophenol,DMF,CN(C)C=O,12.2,Ejoc202001649-sup-00001-misc_information.pdf
1440,2-NO2-phenol,C1=CC=C(C(=C1)[N+](=O)[O-])O,88-75-5,2-nitrophenol,MeCN,CC#N,22.85,leito_acids
371,2-nitroaniline,C1=CC=C(C(=C1)[NH3+])[N+](=O)[O-],,(2-nitrophenyl)azanium,MeCN,CC#N,4.8,pKa_values_of_nitrogen_heterocycles.pdf
354,2-chloroaniline,C1=CC=C(C(=C1)[NH3+])Cl,,(2-chlorophenyl)azanium,MeCN,CC#N,7.86,pKa_values_of_nitrogen_heterocycles.pdf
184,o-Nitrobenzoicacid,C1=CC=C(C(=C1)C(=O)O)[N+](=O)[O-],552-16-9,2-nitrobenzoic acid,MeCN,CC#N,18.2,MeCN_Acids_COSMO-RS_2008_Table.pdf
112,Phthalic acid,C1=CC=C(C(=C1)C(=O)O)C(=O)O,88-99-3,phthalic acid,MeCN,CC#N,14.3,MeCN_Acids_COSMO-RS_2008_Table.pdf
169,2-Chloro-benzoicacid,C1=CC=C(C(=C1)C(=O)O)Cl,118-91-2,2-chlorobenzoic acid,MeCN,CC#N,19,MeCN_Acids_COSMO-RS_2008_Table.pdf
156,Salicylicacid,C1=CC=C(C(=C1)C(=O)O)O,69-72-7,2-hydroxybenzoic acid,MeCN,CC#N,16.7,MeCN_Acids_COSMO-RS_2008_Table.pdf
210,2-Trifluoromethylphenol,C1=CC=C(C(=C1)C(F)(F)F)O,444-30-4,2-(trifluoromethyl)phenol,MeCN,CC#N,24.88,MeCN_Acids_COSMO-RS_2008_Table.pdf
559,2-trifluoromethylPhenol,C1=CC=C(C(=C1)C(F)(F)F)O,444-30-4,2-(trifluoromethyl)phenol,MeCN,CC#N,24.9,pKa_values_of_acids_in_acetonitrile.pdf
789,444-30-4,C1=CC=C(C(=C1)C(F)(F)F)O,444-30-4,2-(trifluoromethyl)phenol,MeCN,CC#N,24.9,Ejoc202001649-sup-00001-misc_information.pdf