,checking,solute,solute SMILES,computed CAS,computed IUPAC,solvent,solvent SMILES,pka,ref
509,T,(4-Cl-C6F4)(C6F5)CHCN,C(#N)C(C1=C(C(=C(C(=C1F)F)F)F)F)C2=C(C(=C(C(=C2F)F)Cl)F)F,42238-36-8,"2-(4-chloro-2,3,5,6-tetrafluorophenyl)-2-(2,3,4,5,6-pentafluorophenyl)acetonitrile",DMSO,CS(=O)C,7.5,a_unified_view_to_bronsted_acidity_scales.pdf
510,T,(4-CF3-C6F4)(C6F5)CHCN,FC1=C(F)C(=C(C(C#N)C2=C(F)C(=C(C(=C2F)F)C(F)(F)F)F)C(=C1F)F)F,42238-35-7,"2-(2,3,4,5,6-pentafluorophenyl)-2-[2,3,5,6-tetrafluoro-4-(trifluoromethyl)phenyl]acetonitrile",DMSO,CS(=O)C,4.9,a_unified_view_to_bronsted_acidity_scales.pdf
511,T,(C6F5)CH(CN)COOEt,CCOC(=O)C(C#N)C1=C(C(=C(C(=C1F)F)F)F)F,2340-87-6,"ethyl 2-cyano-2-(2,3,4,5,6-pentafluorophenyl)acetate",DMSO,CS(=O)C,4.7,a_unified_view_to_bronsted_acidity_scales.pdf
512,T,(4-Cl-C6F4)CH(CN)COOEt,CCOC(=O)C(C#N)C1=C(C(=C(C(=C1F)F)Cl)F)F,55810-56-5,"ethyl 2-(4-chloro-2,3,5,6-tetrafluorophenyl)-2-cyanoacetate",DMSO,CS(=O)C,4.5,a_unified_view_to_bronsted_acidity_scales.pdf
513,T,(4-CF3-C6F4)CH(CN)COOEt,CCOC(=O)C(C#N)C1=C(C(=C(C(=C1F)F)C(F)(F)F)F)F,32251-53-9,"ethyl 2-cyano-2-[2,3,5,6-tetrafluoro-4-(trifluoromethyl)phenyl]acetate",DMSO,CS(=O)C,3,a_unified_view_to_bronsted_acidity_scales.pdf
514,T,(4-NC5F4)(C6F5)CHCN,C(#N)C(C1=C(C(=C(C(=C1F)F)F)F)F)C2=C(C(=NC(=C2F)F)F)F,62325-51-3,"2-(2,3,4,5,6-pentafluorophenyl)-2-(2,3,5,6-tetrafluoropyridin-4-yl)acetonitrile",DMSO,CS(=O)C,3.3,a_unified_view_to_bronsted_acidity_scales.pdf
515,T,(4-NC5F4)CH(CN)COOEt,CCOC(=O)C(C#N)C1=C(C(=NC(=C1F)F)F)F,55810-61-2,"ethyl 2-cyano-2-(2,3,5,6-tetrafluoropyridin-4-yl)acetate",DMSO,CS(=O)C,3.2,a_unified_view_to_bronsted_acidity_scales.pdf
516,T,(4-NC5F4)2CHCN,C(#N)C(C1=C(C(=NC(=C1F)F)F)F)C2=C(C(=NC(=C2F)F)F)F,64934-72-1,"2,2-bis(2,3,5,6-tetrafluoropyridin-4-yl)acetonitrile",DMSO,CS(=O)C,2.4,a_unified_view_to_bronsted_acidity_scales.pdf
517,T,Picric acid,C1=C(C=C(C(=C1[N+](=O)[O-])O)[N+](=O)[O-])[N+](=O)[O-],88-89-1,"2,4,6-trinitrophenol",DMSO,CS(=O)C,-1.09,a_unified_view_to_bronsted_acidity_scales.pdf
518,T,4-CF3-C6F4CH(CN)2,C(#N)C(C#N)C1=C(C(=C(C(=C1F)F)C(F)(F)F)F)F,55852-24-9,"2-[2,3,5,6-tetrafluoro-4-(trifluoromethyl)phenyl]propanedinitrile",DMSO,CS(=O)C,1.7,a_unified_view_to_bronsted_acidity_scales.pdf
519,T,7-nitroIndole,C1=CC2=C(C(=C1)[N+](=O)[O-])NC=C2,6960-42-5,7-nitro-1H-indole,MeCN,CC#N,29.99,pKa_values_of_acids_in_acetonitrile.pdf
520,T,Indoxyl acetate,CC(=O)OC1=CNC2=CC=CC=C21,608-08-2,1H-indol-3-yl acetate,MeCN,CC#N,29.97,pKa_values_of_acids_in_acetonitrile.pdf
521,T,Phenol,C1=CC=C(C=C1)O,108-95-2,phenol,MeCN,CC#N,29.2,pKa_values_of_acids_in_acetonitrile.pdf
522,,tBu4Box2CH2,no matches,-,-,MeCN,CC#N,28.85,pKa_values_of_acids_in_acetonitrile.pdf
523,T,"4-cyano-2,3,5,6-tetrafluoroAniline",C(#N)C1=C(C(=C(C(=C1F)F)N)F)F,17823-38-0,"4-amino-2,3,5,6-tetrafluorobenzonitrile",MeCN,CC#N,28.78,pKa_values_of_acids_in_acetonitrile.pdf
524,T,pentakis(trifluoromethyl)Toluene,CC1=C(C(=C(C(=C1C(F)(F)F)C(F)(F)F)C(F)(F)F)C(F)(F)F)C(F)(F)F,-,"1-methyl-2,3,4,5,6-pentakis(trifluoromethyl)benzene",MeCN,CC#N,28.77,pKa_values_of_acids_in_acetonitrile.pdf
525,T,5-nitroIndole,C1=CC2=C(C=CN2)C=C1[N+](=O)[O-],6146-52-7,5-nitro-1H-indole,MeCN,CC#N,28.18,pKa_values_of_acids_in_acetonitrile.pdf
526,T,9-C6F5-Fluorene,C1=CC=C2C(=C1)C(C3=CC=CC=C32)C4=C(C(=C(C(=C4F)F)F)F)F,73482-93-6,"9-(2,3,4,5,6-pentafluorophenyl)-9H-fluorene",MeCN,CC#N,28.14,pKa_values_of_acids_in_acetonitrile.pdf
527,,"1-(4-Cl-C6H4)-3-(3,4-Cl2-C6H3)urea",no matches,-,-,MeCN,CC#N,27.95,pKa_values_of_acids_in_acetonitrile.pdf
528,T,4-nitroIndole,C1=CC2=C(C=CN2)C(=C1)[N+](=O)[O-],4769-97-5,4-nitro-1H-indole,MeCN,CC#N,27.89,pKa_values_of_acids_in_acetonitrile.pdf
529,T,6-nitroIndole,C1=CC(=CC2=C1C=CN2)[N+](=O)[O-],4769-96-4,6-nitro-1H-indole,MeCN,CC#N,27.79,pKa_values_of_acids_in_acetonitrile.pdf
530,,Me2Box2CH2,no matches,-,-,MeCN,CC#N,27.59,pKa_values_of_acids_in_acetonitrile.pdf
531,,"(3,5-(CF3)2-C6H3)3COH",no matches,-,-,MeCN,CC#N,27.21,pKa_values_of_acids_in_acetonitrile.pdf
532,T,C6H5-CH2-Tf,C1=CC=C(C=C1)CS(=O)(=O)C(F)(F)F,-,trifluoromethylsulfonylmethylbenzene,MeCN,CC#N,27.19,pKa_values_of_acids_in_acetonitrile.pdf
533,,"1,2,3,4-F4-9-Ph-Fluorene",no matches,-,-,MeCN,CC#N,27.12,pKa_values_of_acids_in_acetonitrile.pdf
534,,4-Cl-C6H4-CH2-Tf,no matches,-,-,MeCN,CC#N,27.06,pKa_values_of_acids_in_acetonitrile.pdf
535,,4-F-C6H4-CH2-Tf,no matches,-,-,MeCN,CC#N,27,pKa_values_of_acids_in_acetonitrile.pdf
536,,(Ph)(4-Me-C6F4)CHCN,no matches,-,-,MeCN,CC#N,26.98,pKa_values_of_acids_in_acetonitrile.pdf
537,,4-Me-C6H4-SO2-NH2,no matches,-,-,MeCN,CC#N,26.95,pKa_values_of_acids_in_acetonitrile.pdf
538,,Box2CH2,no matches,-,-,MeCN,CC#N,26.89,pKa_values_of_acids_in_acetonitrile.pdf
539,,(4-NC5F4)(4-Me-C6H4)NH,no matches,-,-,MeCN,CC#N,26.87,pKa_values_of_acids_in_acetonitrile.pdf
540,,C6H5SO2NH2,no matches,-,-,MeCN,CC#N,26.63,pKa_values_of_acids_in_acetonitrile.pdf
541,T,3-trifluoromethylPhenol,C1=CC(=CC(=C1)O)C(F)(F)F,98-17-9,3-(trifluoromethyl)phenol,MeCN,CC#N,26.5,pKa_values_of_acids_in_acetonitrile.pdf
542,,C6F5NHCOMe,no matches,-,-,MeCN,CC#N,26.45,pKa_values_of_acids_in_acetonitrile.pdf
543,,(Ph)(4-NC5F4)NH,no matches,-,-,MeCN,CC#N,26.36,pKa_values_of_acids_in_acetonitrile.pdf
544,,(4-NO2-C6H4)2NH,no matches,-,-,MeCN,CC#N,26.18,pKa_values_of_acids_in_acetonitrile.pdf
545,,4-nitroIndolocarbazole,no matches,-,-,MeCN,CC#N,26.18,pKa_values_of_acids_in_acetonitrile.pdf
546,,4-F-C6H4-SO2-NH2,no matches,-,-,MeCN,CC#N,26.16,pKa_values_of_acids_in_acetonitrile.pdf
547,,SBoxCH2,no matches,-,-,MeCN,CC#N,26.16,pKa_values_of_acids_in_acetonitrile.pdf
548,,(Ph)(C6F5)CHCN,no matches,-,-,MeCN,CC#N,26.16,pKa_values_of_acids_in_acetonitrile.pdf
549,T,3-cyanoIndole,C1=CC=C2C(=C1)C(=CN2)C#N,5457-28-3,1H-indole-3-carbonitrile,MeCN,CC#N,26.01,pKa_values_of_acids_in_acetonitrile.pdf
550,,4-Cl-C6H4-SO2-NH2,no matches,-,-,MeCN,CC#N,25.85,pKa_values_of_acids_in_acetonitrile.pdf
551,,3-F-C6H4-CH2-Tf,no matches,-,-,MeCN,CC#N,25.62,pKa_values_of_acids_in_acetonitrile.pdf
552,T,4-trifluoromethylPhenol,C1=CC(=CC=C1C(F)(F)F)O,402-45-9,4-(trifluoromethyl)phenol,MeCN,CC#N,25.5,pKa_values_of_acids_in_acetonitrile.pdf
553,,3-Cl-C6H4-CH2-Tf,no matches,-,-,MeCN,CC#N,25.47,pKa_values_of_acids_in_acetonitrile.pdf
554,,4-CF3-C6H4-SO2-NH2,no matches,-,-,MeCN,CC#N,25.24,pKa_values_of_acids_in_acetonitrile.pdf
555,,3-CF3-C6H4-SO2-NH2,no matches,-,-,MeCN,CC#N,25.2,pKa_values_of_acids_in_acetonitrile.pdf
556,T,(4-Me2N-C6F4)(C6F5)NH,CN(C)C1=C(F)C(=C(NC2=C(F)C(=C(F)C(=C2F)F)F)C(=C1F)F)F,80588-34-7,"2,3,5,6-tetrafluoro-N1,N1-dimethyl-N4-(perfluorophenyl)benzene-1,4-diamine",MeCN,CC#N,25.13,pKa_values_of_acids_in_acetonitrile.pdf
557,,3-CF3-C6H4-CH2-Tf,no matches,-,-,MeCN,CC#N,25.08,pKa_values_of_acids_in_acetonitrile.pdf
558,T,(4-Me-C6F4)(C6F5)NH,"2,3,5,6-tetrafluoro-4-methyl-N-(2,3,4,5,6-pentafluorophenyl)aniline",80588-36-9,"2,3,5,6-tetrafluoro-4-methyl-N-(2,3,4,5,6-pentafluorophenyl)aniline",MeCN,CC#N,24.96,pKa_values_of_acids_in_acetonitrile.pdf
559,T,2-trifluoromethylPhenol,C1=CC=C(C(=C1)C(F)(F)F)O,444-30-4,2-(trifluoromethyl)phenol,MeCN,CC#N,24.9,pKa_values_of_acids_in_acetonitrile.pdf
560,,"1,3-Bis(4-NO2-C6H4)urea",no matches,-,-,MeCN,CC#N,24.71,pKa_values_of_acids_in_acetonitrile.pdf
561,,3-NO2-C6H4-SO2-NH2,no matches,-,-,MeCN,CC#N,24.63,pKa_values_of_acids_in_acetonitrile.pdf
562,T,pentakis(trifluoromethyl)Aniline,C1(=C(C(=C(C(=C1C(F)(F)F)C(F)(F)F)N)C(F)(F)F)C(F)(F)F)C(F)(F)F,58956-76-6,"2,3,4,5,6-pentakis(trifluoromethyl)aniline",MeCN,CC#N,24.57,pKa_values_of_acids_in_acetonitrile.pdf
563,,4-NO2-C6H4SO2NH2,no matches,-,-,MeCN,CC#N,24.57,pKa_values_of_acids_in_acetonitrile.pdf
564,,3-CN-C6H4-CH2-Tf,no matches,-,-,MeCN,CC#N,24.51,pKa_values_of_acids_in_acetonitrile.pdf
565,T,Octafluorofluorene,C1C2=C(C3=C1C(=C(C(=C3F)F)F)F)C(=C(C(=C2F)F)F)F,27053-34-5,"1,2,3,4,5,6,7,8-octafluoro-9H-fluorene",MeCN,CC#N,24.49,pKa_values_of_acids_in_acetonitrile.pdf
566,,4-CF3-C6H4-CH2-Tf,no matches,-,-,MeCN,CC#N,24.44,pKa_values_of_acids_in_acetonitrile.pdf
567,,"3,5-(CF3)2-Ph-C-thiourea",no matches,-,-,MeCN,CC#N,24.31,pKa_values_of_acids_in_acetonitrile.pdf
568,,(4-H-C6F4)(C6F5)NH,no matches,-,-,MeCN,CC#N,24.11,pKa_values_of_acids_in_acetonitrile.pdf
569,,C6F5NHC(CF3)3,no matches,-,-,MeCN,CC#N,24.03,pKa_values_of_acids_in_acetonitrile.pdf
570,,(C6F5)2NH,no matches,-,-,MeCN,CC#N,23.98,pKa_values_of_acids_in_acetonitrile.pdf
571,,"3,5-F2-C6H3-CH2-Tf",no matches,-,-,MeCN,CC#N,23.96,pKa_values_of_acids_in_acetonitrile.pdf
572,T,Fluoradene,C1=CC=C2C3=C4C(C2=C1)C5=CC=CC=C5C4=CC=C3,205-94-7,fluoradene,MeCN,CC#N,23.92,pKa_values_of_acids_in_acetonitrile.pdf
573,T,"2,4,6-trinitroAniline",C1=C(C=C(C(=C1[N+](=O)[O-])N)[N+](=O)[O-])[N+](=O)[O-],489-98-5,"2,4,6-trinitroaniline",MeCN,CC#N,23.87,pKa_values_of_acids_in_acetonitrile.pdf
574,T,"3,5-bis(trifluoromethyl)Phenol",C1=C(C=C(C=C1C(F)(F)F)O)C(F)(F)F,349-58-6,"3,5-bis(trifluoromethyl)phenol",MeCN,CC#N,23.8,pKa_values_of_acids_in_acetonitrile.pdf
575,T,2-nitroIndole,C1=CC=C2C(=C1)C=C(N2)[N+](=O)[O-],60544-75-4,2-nitro-1H-indole,MeCN,CC#N,23.64,pKa_values_of_acids_in_acetonitrile.pdf
576,T,9-COOMe-Fluorene,COC(=O)C1C2=CC=CC=C2C3=CC=CC=C13,3002-30-0,methyl 9H-fluorene-9-carboxylate,MeCN,CC#N,23.54,pKa_values_of_acids_in_acetonitrile.pdf
577,T,Acetic acid,CC(=O)O,64-19-7,acetic acid,MeCN,CC#N,23.5,pKa_values_of_acids_in_acetonitrile.pdf
578,,(4-Cl-C6F4)(C6F5)NH,no matches,-,-,MeCN,CC#N,23.22,pKa_values_of_acids_in_acetonitrile.pdf
579,,4-CN-C6H4-CH2-Tf,no matches,-,-,MeCN,CC#N,23.19,pKa_values_of_acids_in_acetonitrile.pdf
580,T,Sorbic acid,CC=CC=CC(=O)O,110-44-1,"hexa-2,4-dienoic acid",MeCN,CC#N,22.97,pKa_values_of_acids_in_acetonitrile.pdf
581,,C6F5CH(COOEt)2,no matches,-,-,MeCN,CC#N,22.88,pKa_values_of_acids_in_acetonitrile.pdf
582,T,2-nitroPhenol,C1=CC=C(C(=C1)[N+](=O)[O-])O,88-75-5,2-nitrophenol,MeCN,CC#N,22.85,pKa_values_of_acids_in_acetonitrile.pdf
583,,"3,5-(CF3)2-C6H3-CH2-Tf",no matches,-,-,MeCN,CC#N,22.84,pKa_values_of_acids_in_acetonitrile.pdf
584,T,(4-Me-C6F4)2CHCN,CC1=C(F)C(=C(C(C#N)C2=C(F)C(=C(C)C(=C2F)F)F)C(=C1F)F)F,58432-44-3,"2,2-bis(2,3,5,6-tetrafluoro-4-methylphenyl)acetonitrile",MeCN,CC#N,22.8,pKa_values_of_acids_in_acetonitrile.pdf
585,T,Retinoic acid,CC1=C(C(CCC1)(C)C)C=CC(=CC=CC(=CC(=O)O)C)C,302-79-4,"3,7-dimethyl-9-(2,6,6-trimethylcyclohexen-1-yl)nona-2,4,6,8-tetraenoic acid",MeCN,CC#N,22.78,pKa_values_of_acids_in_acetonitrile.pdf
586,T,3-nitroIndole,C1=CC=C2C(=C1)C(=CN2)[N+](=O)[O-],4770-03-0,3-nitro-1H-indole,MeCN,CC#N,22.77,pKa_values_of_acids_in_acetonitrile.pdf
587,,C6F5SO2NH2,no matches,-,-,MeCN,CC#N,22.27,pKa_values_of_acids_in_acetonitrile.pdf
588,T,(4-Me-C6F4)(C6F5)CHCN,CC1=C(C(=C(C(=C1F)F)C(C#N)C2=C(C(=C(C(=C2F)F)F)F)F)F)F,52345-34-3,"2-(2,3,4,5,6-pentafluorophenyl)-2-(2,3,5,6-tetrafluoro-4-methylphenyl)acetonitrile",MeCN,CC#N,21.94,pKa_values_of_acids_in_acetonitrile.pdf
589,,4-NO2-C6H4CH2Tf,no matches,-,-,MeCN,CC#N,21.92,pKa_values_of_acids_in_acetonitrile.pdf
590,T,Benzoic acid,C1=CC=C(C=C1)C(=O)O,65-85-0,benzoic acid,MeCN,CC#N,21.5,pKa_values_of_acids_in_acetonitrile.pdf
591,,(4-CF3-C6H4)(C6F5)NH,no matches,-,-,MeCN,CC#N,21.37,pKa_values_of_acids_in_acetonitrile.pdf
592,T,9-CN-Fluorene,C1=CC=C2C(=C1)C(C3=CC=CC=C32)C#N,1529-40-4,9H-fluorene-9-carbonitrile,MeCN,CC#N,21.35,pKa_values_of_acids_in_acetonitrile.pdf
593,T,Alizarin,C1=CC=C2C(=C1)C(=O)C3=C(C2=O)C(=C(C=C3)O)O,72-48-0,"1,2-dihydroxyanthracene-9,10-dione",MeCN,CC#N,21.23,pKa_values_of_acids_in_acetonitrile.pdf
594,T,(4-H-C6F4)(C6F5)CHCN,C1=C(C(=C(C(=C1F)F)C(C#N)C2=C(C(=C(C(=C2F)F)F)F)F)F)F,42254-09-1,"2-(2,3,4,5,6-pentafluorophenyl)-2-(2,3,5,6-tetrafluorophenyl)acetonitrile",MeCN,CC#N,21.1,pKa_values_of_acids_in_acetonitrile.pdf
595,T,(C6F5)2CHCN,FC1=C(F)C(=C(C(C#N)C2=C(F)C(=C(F)C(=C2F)F)F)C(=C1F)F)F,42238-34-6,"2,2-bis(2,3,4,5,6-pentafluorophenyl)acetonitrile",MeCN,CC#N,21.09,pKa_values_of_acids_in_acetonitrile.pdf
596,,4-CF3-C6F4-CH2-Tf,no matches,-,-,MeCN,CC#N,21.02,pKa_values_of_acids_in_acetonitrile.pdf
597,T,(CF3)3COH,C(C(F)(F)F)(C(F)(F)F)(C(F)(F)F)O,174619,"1,1,1,3,3,3-hexafluoro-2-(trifluoromethyl)propan-2-ol",MeCN,CC#N,20.5,pKa_values_of_acids_in_acetonitrile.pdf
598,T,(4-NC5F4)(C6F5)NH,C1=CC=C(C=C1)NC2=C(C(=NC(=C2F)F)F)F,39077-43-5,"2,3,5,6-tetrafluoro-N-phenylpyridin-4-amine",MeCN,CC#N,20.39,pKa_values_of_acids_in_acetonitrile.pdf
599,T,(4-Cl-C6F4)(C6F5)CHCN,C(#N)C(C1=C(C(=C(C(=C1F)F)F)F)F)C2=C(C(=C(C(=C2F)F)Cl)F)F,42238-36-8,"2-(4-chloro-2,3,5,6-tetrafluorophenyl)-2-(2,3,4,5,6-pentafluorophenyl)acetonitrile",MeCN,CC#N,20.36,pKa_values_of_acids_in_acetonitrile.pdf
600,T,"2,4,6-tribromoPhenol",C1=C(C=C(C(=C1Br)O)Br)Br,118-79-6,"2,4,6-tribromophenol",MeCN,CC#N,20.34,pKa_values_of_acids_in_acetonitrile.pdf
601,T,pentacyanoToluene,CC1=C(C(=C(C(=C1C#N)C#N)C#N)C#N)C#N,1213-77-0,"6-methylbenzene-1,2,3,4,5-pentacarbonitrile",MeCN,CC#N,20.14,pKa_values_of_acids_in_acetonitrile.pdf
602,T,"(2,4,6-Cl3-C6F2)(C6F5)CHCN","2-(2,3,4,5,6-pentafluorophenyl)-2-(2,4,6-trichloro-3,5-difluorophenyl)acetonitrile",64934-69-6,"2-(2,3,4,5,6-pentafluorophenyl)-2-(2,4,6-trichloro-3,5-difluorophenyl)acetonitrile",MeCN,CC#N,20.13,pKa_values_of_acids_in_acetonitrile.pdf
603,T,"2,3,5,6-tetrafluoroPhenol",C1=C(C(=C(C(=C1F)F)O)F)F,769-39-1,"2,3,5,6-tetrafluorophenol",MeCN,CC#N,20.1,pKa_values_of_acids_in_acetonitrile.pdf
604,T,pentafluoroPhenol,C1(=C(C(=C(C(=C1F)F)F)F)F)O,771-61-9,"2,3,4,5,6-pentafluorophenol",MeCN,CC#N,20.1,pKa_values_of_acids_in_acetonitrile.pdf
605,T,(2-C10F7)(C6F5)CHCN,C(#N)C(C1=C(C2=C(C(=C1F)F)C(=C(C(=C2F)F)F)F)F)C3=C(C(=C(C(=C3F)F)F)F)F,64934-68-5,"2-(1,3,4,5,6,7,8-heptafluoronaphthalen-2-yl)-2-(2,3,4,5,6-pentafluorophenyl)acetonitrile",MeCN,CC#N,20.07,pKa_values_of_acids_in_acetonitrile.pdf
606,,(4-CN-C6F4)(C6F5)NH,no matches,-,-,MeCN,CC#N,19.87,pKa_values_of_acids_in_acetonitrile.pdf
607,,1-C10F7-OH,no matches,-,-,MeCN,CC#N,19.7,pKa_values_of_acids_in_acetonitrile.pdf
608,,"2,4,6-(SO2F)3-Aniline",no matches,-,-,MeCN,CC#N,19.66,pKa_values_of_acids_in_acetonitrile.pdf
609,T,(2-C10F7)2CHCN,C(#N)C(C1=C(C2=C(C(=C1F)F)C(=C(C(=C2F)F)F)F)F)C3=C(C4=C(C(=C3F)F)C(=C(C(=C4F)F)F)F)F,62325-38-6,"2,2-bis(1,3,4,5,6,7,8-heptafluoronaphthalen-2-yl)acetonitrile",MeCN,CC#N,19.32,pKa_values_of_acids_in_acetonitrile.pdf
610,,Br4-CA-benzoic acid,no matches,-,-,MeCN,CC#N,19.2,pKa_values_of_acids_in_acetonitrile.pdf
611,T,9-C6F5-Octafluorofluorene,C1(C2=C(C3=C1C(=C(C(=C3F)F)F)F)C(=C(C(=C2F)F)F)F)C4=C(C(=C(C(=C4F)F)F)F)F,63264-80-2,"1,2,3,4,5,6,7,8-octafluoro-9-(2,3,4,5,6-pentafluorophenyl)-9H-fluorene",MeCN,CC#N,18.87,pKa_values_of_acids_in_acetonitrile.pdf
612,,2-C10F7-OH,no matches,-,-,MeCN,CC#N,18.5,pKa_values_of_acids_in_acetonitrile.pdf
613,,"[4-(Ph3B)-2,6-Mes2-Pyridine]H",no matches,-,-,MeCN,CC#N,18.45,pKa_values_of_acids_in_acetonitrile.pdf
614,,(4-NC5F4)(4-CF3-C6F4)NH,no matches,-,-,MeCN,CC#N,18.25,pKa_values_of_acids_in_acetonitrile.pdf
615,T,(4-CF3-C6F4)(C6F5)CHCN,FC1=C(F)C(=C(C(C#N)C2=C(F)C(=C(C(=C2F)F)C(F)(F)F)F)C(=C1F)F)F,42238-35-7,"2-(2,3,4,5,6-pentafluorophenyl)-2-[2,3,5,6-tetrafluoro-4-(trifluoromethyl)phenyl]acetonitrile",MeCN,CC#N,18.13,pKa_values_of_acids_in_acetonitrile.pdf
616,T,"4-C6F5-2,3,5,6-F4-Phenol",C1(=C(C(=C(C(=C1F)F)O)F)F)C2=C(C(=C(C(=C2F)F)F)F)F,2894-87-3,"2,3,5,6-tetrafluoro-4-(2,3,4,5,6-pentafluorophenyl)phenol",MeCN,CC#N,18.1,pKa_values_of_acids_in_acetonitrile.pdf
617,,Br4-CF3-CAC-benzoic acid,no matches,-,-,MeCN,CC#N,18.1,pKa_values_of_acids_in_acetonitrile.pdf
618,,4-H-C6F4-CH(CN)COOEt,no matches,-,-,MeCN,CC#N,18.07,pKa_values_of_acids_in_acetonitrile.pdf
619,T,pentachloroPhenol,C1(=C(C(=C(C(=C1Cl)Cl)Cl)Cl)Cl)O,87-86-5,"2,3,4,5,6-pentachlorophenol",MeCN,CC#N,18,pKa_values_of_acids_in_acetonitrile.pdf
620,T,pentabromoPhenol,C1(=C(C(=C(C(=C1Br)Br)Br)Br)Br)O,608-71-9,"2,3,4,5,6-pentabromophenol",MeCN,CC#N,17.81,pKa_values_of_acids_in_acetonitrile.pdf
621,,C6F5CH(CN)COOEt,no matches,-,-,MeCN,CC#N,17.73,pKa_values_of_acids_in_acetonitrile.pdf
622,T,4-Me-C6H4-CH(CN)2,CC1=C(C(=C(C(=C1F)F)C(C#N)C#N)F)F,64934-71-0,"2-(2,3,5,6-tetrafluoro-4-methylphenyl)propanedinitrile",MeCN,CC#N,17.57,pKa_values_of_acids_in_acetonitrile.pdf
623,,2-C10F7-CH(CN)COOEt,no matches,-,-,MeCN,CC#N,17.48,pKa_values_of_acids_in_acetonitrile.pdf
624,,4-Cl-C6F4-CH(CN)COOEt,no matches,-,-,MeCN,CC#N,17.38,pKa_values_of_acids_in_acetonitrile.pdf
625,,(4-NC5F4)2NH,no matches,-,-,MeCN,CC#N,17.2,pKa_values_of_acids_in_acetonitrile.pdf
626,,Br4-CX-benzoic acid,no matches,-,-,MeCN,CC#N,17.19,pKa_values_of_acids_in_acetonitrile.pdf
627,,"2-Me-4,6-(NO2)2-Phenol",no matches,-,-,MeCN,CC#N,16.97,pKa_values_of_acids_in_acetonitrile.pdf
628,T,"2,6-dinitroPhenol",C1=CC(=C(C(=C1)[N+](=O)[O-])O)[N+](=O)[O-],573-56-8,"2,6-dinitrophenol",MeCN,CC#N,16.74,pKa_values_of_acids_in_acetonitrile.pdf
629,T,"2,4-dinitroPhenol",C1=CC(=C(C=C1[N+](=O)[O-])[N+](=O)[O-])O,51-28-5,"2,4-dinitrophenol",MeCN,CC#N,16.65,pKa_values_of_acids_in_acetonitrile.pdf
630,,"2,3,5,6-tetrafluoro-4-trifluoromethylPhenol",no matches,-,-,MeCN,CC#N,16.6,pKa_values_of_acids_in_acetonitrile.pdf
631,T,(4-NC5F4)(C6F5)CHCN,C(#N)C(C1=C(C(=C(C(=C1F)F)F)F)F)C2=C(C(=NC(=C2F)F)F)F,62325-51-3,"2-(2,3,4,5,6-pentafluorophenyl)-2-(2,3,5,6-tetrafluoropyridin-4-yl)acetonitrile",MeCN,CC#N,16.39,pKa_values_of_acids_in_acetonitrile.pdf
632,T,"4-fluoro-2,6-dinitroPhenol",C1=C(C=C(C(=C1[N+](=O)[O-])O)[N+](=O)[O-])F,364-32-9,"4-fluoro-2,6-dinitrophenol",MeCN,CC#N,16.17,pKa_values_of_acids_in_acetonitrile.pdf
633,T,(4-CF3-C6F4)2CHCN,C(#N)C(C1=C(C(=C(C(=C1F)F)C(F)(F)F)F)F)C2=C(C(=C(C(=C2F)F)C(F)(F)F)F)F,58432-55-6,"2,2-bis[2,3,5,6-tetrafluoro-4-(trifluoromethyl)phenyl]acetonitrile",MeCN,CC#N,16.12,pKa_values_of_acids_in_acetonitrile.pdf
634,,4-CF3-C6F4-CH(CN)COOEt,no matches,-,-,MeCN,CC#N,16.07,pKa_values_of_acids_in_acetonitrile.pdf
635,T,(4-NC5F4)(2-C10F7)CHCN,C(#N)C(C1=C(C2=C(C(=C1F)F)C(=C(C(=C2F)F)F)F)F)C3=C(C(=NC(=C3F)F)F)F,62325-37-5,"2-(1,3,4,5,6,7,8-heptafluoronaphthalen-2-yl)-2-(2,3,5,6-tetrafluoropyridin-4-yl)acetonitrile",MeCN,CC#N,16.01,pKa_values_of_acids_in_acetonitrile.pdf
636,,4-NO2-C6H4SO2NHCOC6H4-4-Me,no matches,-,-,MeCN,CC#N,15.68,pKa_values_of_acids_in_acetonitrile.pdf
637,T,4-NC5F4-OH,C1(=C(NC(=C(C1=O)F)F)F)F,2693-66-5,"2,3,5,6-tetrafluoro-1H-pyridin-4-one",MeCN,CC#N,15.39,pKa_values_of_acids_in_acetonitrile.pdf
638,,4-NC5F4-CH(CN)COOEt,no matches,-,-,MeCN,CC#N,14.89,pKa_values_of_acids_in_acetonitrile.pdf
639,,3-CF3-C6H4-CH(CN)2,no matches,-,-,MeCN,CC#N,14.7,pKa_values_of_acids_in_acetonitrile.pdf
640,T,Saccharin,C1=CC=C2C(=C1)C(=O)NS2(=O)=O,128-44-9,"1,1-dioxo-1,2-benzothiazol-3-one",MeCN,CC#N,14.57,pKa_values_of_acids_in_acetonitrile.pdf
641,,3-NO2-C6H4-SO2-NH-CO-C6H4-3-Cl,no matches,-,-,MeCN,CC#N,14.55,pKa_values_of_acids_in_acetonitrile.pdf
642,,4-NO2-C6H4SO2NHCOC6H4-3-Cl,no matches,-,-,MeCN,CC#N,14.43,pKa_values_of_acids_in_acetonitrile.pdf
643,T,"2-chloro-4,6-dinitroPhenol",C1=C(C=C(C(=C1[N+](=O)[O-])O)Cl)[N+](=O)[O-],946-31-6,"2-chloro-4,6-dinitrophenol",MeCN,CC#N,14.23,pKa_values_of_acids_in_acetonitrile.pdf
644,,[9-Phenanthrene]-BPA-[H8],no matches,-,-,MeCN,CC#N,13.97,pKa_values_of_acids_in_acetonitrile.pdf
645,T,4-Me-C6F4-CH(CN)2,CC1=C(C(=C(C(=C1F)F)C(C#N)C#N)F)F,64934-71-0,"2-(2,3,5,6-tetrafluoro-4-methylphenyl)propanedinitrile",MeCN,CC#N,13.87,pKa_values_of_acids_in_acetonitrile.pdf
646,,"[2,4,6-i-Pr3-C6H2]-BPA",no matches,-,-,MeCN,CC#N,13.63,pKa_values_of_acids_in_acetonitrile.pdf
647,,"RR-3,5-(CF3)2-Ph-CXCC-Br4-benzoic acid",no matches,-,-,MeCN,CC#N,13.55,pKa_values_of_acids_in_acetonitrile.pdf
648,T,(4-NC5F4)2CHCN,C(#N)C(C1=C(C(=NC(=C1F)F)F)F)C2=C(C(=NC(=C2F)F)F)F,64934-72-1,"2,2-bis(2,3,5,6-tetrafluoropyridin-4-yl)acetonitrile",MeCN,CC#N,13.47,pKa_values_of_acids_in_acetonitrile.pdf
649,,"2,3,4,5,6-(CF3)5-C6-CH(CN)COOEt",no matches,-,-,MeCN,CC#N,13.41,pKa_values_of_acids_in_acetonitrile.pdf
650,,[9-Phenanthrene]-BPA,no matches,-,-,MeCN,CC#N,13.32,pKa_values_of_acids_in_acetonitrile.pdf
651,T,C6F5CH(CN)2,C(#N)C(C#N)C1=C(C(=C(C(=C1F)F)F)F)F,719-38-0,"2-(2,3,4,5,6-pentafluorophenyl)propanedinitrile",MeCN,CC#N,13.01,pKa_values_of_acids_in_acetonitrile.pdf