,checking,solute,solute SMILES,computed CAS,computed IUPAC,solvent,solvent SMILES,pka,ref
1043,T,121-52-8,C1=CC(=CC(=C1)S(=O)(=O)N)[N+](=O)[O-],121-52-8,3-nitrobenzenesulfonamide,DMSO,CS(=O)C,14.9,Ejoc202001649-sup-00001-misc_information.pdf
1044,T,58956-76-6,C1(=C(C(=C(C(=C1C(F)(F)F)C(F)(F)F)N)C(F)(F)F)C(F)(F)F)C(F)(F)F,58956-76-6,"2,3,4,5,6-pentakis(trifluoromethyl)aniline",DMSO,CS(=O)C,12.5,Ejoc202001649-sup-00001-misc_information.pdf
1045,T,27053-34-5,C1C2=C(C3=C1C(=C(C(=C3F)F)F)F)C(=C(C(=C2F)F)F)F,27053-34-5,"1,2,3,4,5,6,7,8-octafluoro-9H-fluorene",DMSO,CS(=O)C,10.8,Ejoc202001649-sup-00001-misc_information.pdf
1046,T,194222-97-4,C1=CC(=CC=C1CS(=O)(=O)C(F)(F)F)C(F)(F)F,194222-97-4,1-(trifluoromethyl)-4-(trifluoromethylsulfonylmethyl)benzene,DMSO,CS(=O)C,11.95,Ejoc202001649-sup-00001-misc_information.pdf
1047,,3752-73-6,,,,DMSO,CS(=O)C,11.8,Ejoc202001649-sup-00001-misc_information.pdf
1048,T,1535-92-8,C1(=C(C(=C(C(=C1F)F)F)F)F)NC2=C(C(=C(C(=C2F)F)F)F)F,1535-92-8,"2,3,4,5,6-pentafluoro-N-(2,3,4,5,6-pentafluorophenyl)aniline",DMSO,CS(=O)C,11.6,Ejoc202001649-sup-00001-misc_information.pdf
1049,T,205-94-7,C1=CC=C2C3=C4C(C2=C1)C5=CC=CC=C5C4=CC=C3,205-94-7,fluoradene,DMSO,CS(=O)C,10.5,Ejoc202001649-sup-00001-misc_information.pdf
1050,T,349-58-6,C1=C(C=C(C=C1C(F)(F)F)O)C(F)(F)F,349-58-6,"3,5-bis(trifluoromethyl)phenol",DMSO,CS(=O)C,13.2,Ejoc202001649-sup-00001-misc_information.pdf
1051,T,3002-30-0,COC(=O)C1C2=CC=CC=C2C3=CC=CC=C13,3002-30-0,methyl 9H-fluorene-9-carboxylate,DMSO,CS(=O)C,10.35,Ejoc202001649-sup-00001-misc_information.pdf
1052,T,64-19-7,CC(=O)O,64-19-7,acetic acid,DMSO,CS(=O)C,12.3,Ejoc202001649-sup-00001-misc_information.pdf
1053,,(4-Cl-C6F4)(C6F5)NH,no matches,,-,DMSO,CS(=O)C,10.9,Ejoc202001649-sup-00001-misc_information.pdf
1054,,73622-52-3,no matches,73622-52-3,-,DMSO,CS(=O)C,10.7,Ejoc202001649-sup-00001-misc_information.pdf
1055,T,88-75-5,C1=CC=C(C(=C1)[N+](=O)[O-])O,88-75-5,2-nitrophenol,DMSO,CS(=O)C,11,Ejoc202001649-sup-00001-misc_information.pdf
1056,,213542-80-4,no matches,213542-80-4,-,DMSO,CS(=O)C,9.46,Ejoc202001649-sup-00001-misc_information.pdf
1057,T,65-85-0,C1=CC=C(C=C1)C(=O)O,65-85-0,benzoic acid,DMSO,CS(=O)C,11,Ejoc202001649-sup-00001-misc_information.pdf
1058,T,1529-40-4,C1=CC=C2C(=C1)C(C3=CC=CC=C32)C#N,1529-40-4,9H-fluorene-9-carbonitrile,DMSO,CS(=O)C,8.3,Ejoc202001649-sup-00001-misc_information.pdf
1059,T,42238-34-6,FC1=C(F)C(=C(C(C#N)C2=C(F)C(=C(F)C(=C2F)F)F)C(=C1F)F)F,42238-34-6,"2,2-bis(2,3,4,5,6-pentafluorophenyl)acetonitrile",DMSO,CS(=O)C,7.95,Ejoc202001649-sup-00001-misc_information.pdf
1060,T,1/2/78,C(C(F)(F)F)(C(F)(F)F)(C(F)(F)F)O,1/2/78,"1,1,1,3,3,3-hexafluoro-2-(trifluoromethyl)propan-2-ol",DMSO,CS(=O)C,10.7,Ejoc202001649-sup-00001-misc_information.pdf
1061,T,(4-NC5F4)(C6F5)NH,C1=CC=C(C=C1)NC2=C(C(=NC(=C2F)F)F)F,39077-43-5,"2,3,5,6-tetrafluoro-N-phenylpyridin-4-amine",DMSO,CS(=O)C,8.3,Ejoc202001649-sup-00001-misc_information.pdf
1062,T,42238-36-8,FC1=C(F)C(=C(C(C#N)C2=C(F)C(=C(Cl)C(=C2F)F)F)C(=C1F)F)F,42238-36-8,"2-(4-chloro-2,3,5,6-tetrafluorophenyl)-2-(2,3,4,5,6-pentafluorophenyl)acetonitrile",DMSO,CS(=O)C,7.5,Ejoc202001649-sup-00001-misc_information.pdf
1063,T,118-79-6,C1=C(C=C(C(=C1Br)O)Br)Br,118-79-6,"2,4,6-tribromophenol",DMSO,CS(=O)C,8.7,Ejoc202001649-sup-00001-misc_information.pdf
1064,T,1213-77-0,CC1=C(C(=C(C(=C1C#N)C#N)C#N)C#N)C#N,1213-77-0,"6-methylbenzene-1,2,3,4,5-pentacarbonitrile",DMSO,CS(=O)C,8.2,Ejoc202001649-sup-00001-misc_information.pdf
1065,T,771-61-9,C1(=C(C(=C(C(=C1F)F)F)F)F)O,771-61-9,"2,3,4,5,6-pentafluorophenol",DMSO,CS(=O)C,8.9,Ejoc202001649-sup-00001-misc_information.pdf
1066,,38727-34-3,,,,DMSO,CS(=O)C,8,Ejoc202001649-sup-00001-misc_information.pdf
1067,T,5386-30-1,C12=C(C(=C(C(=C1O)F)F)F)C(=C(C(=C2F)F)F)F,5386-30-1,"2,3,4,5,6,7,8-heptafluoronaphthalen-1-ol",DMSO,CS(=O)C,8.9,Ejoc202001649-sup-00001-misc_information.pdf
1068,T,133213-11-3,NC1=C(C=C(C=C1[S](F)(=O)=O)[S](F)(=O)=O)[S](F)(=O)=O,133213-11-3,"2-aminobenzene-1,3,5-trisulfonyl fluoride",DMSO,CS(=O)C,7.8,Ejoc202001649-sup-00001-misc_information.pdf
1069,T,727-49-1,C12=C(C(=C(C(=C1F)O)F)F)C(=C(C(=C2F)F)F)F,727-49-1,"1,3,4,5,6,7,8-heptafluoronaphthalen-2-ol",DMSO,CS(=O)C,7.9,Ejoc202001649-sup-00001-misc_information.pdf
1070,T,42238-35-7,FC1=C(F)C(=C(C(C#N)C2=CC=C(C=C2)C(F)(F)F)C(=C1F)F)F,42238-35-7,2-(perfluorophenyl)-2-(4-(trifluoromethyl)phenyl)acetonitrile,DMSO,CS(=O)C,4.9,Ejoc202001649-sup-00001-misc_information.pdf
1071,T,55852-22-7,CCOC(=O)C(C#N)C1=C(F)C(=CC(=C1F)F)F,55852-22-7,"ethyl 2-cyano-2-(2,3,5,6-tetrafluorophenyl)acetate",DMSO,CS(=O)C,4.9,Ejoc202001649-sup-00001-misc_information.pdf
1072,T,87-86-5,C1(=C(C(=C(C(=C1Cl)Cl)Cl)Cl)Cl)O,87-86-5,"2,3,4,5,6-pentachlorophenol",DMSO,CS(=O)C,7.18,Ejoc202001649-sup-00001-misc_information.pdf
1073,T,2340-87-6,CCOC(=O)C(C#N)C1=C(C(=C(C(=C1F)F)F)F)F,2340-87-6,"ethyl 2-cyano-2-(2,3,4,5,6-pentafluorophenyl)acetate",DMSO,CS(=O)C,5.1,Ejoc202001649-sup-00001-misc_information.pdf
1074,T,33534-88-2,CC1=CC=C(C=C1)C(C#N)C#N,33534-88-2,2-(4-methylphenyl)propanedinitrile,DMSO,CS(=O)C,4.85,Ejoc202001649-sup-00001-misc_information.pdf
1075,,4-Cl-C6F4-CH(CN)COOEt,no matches,,-,DMSO,CS(=O)C,4.5,Ejoc202001649-sup-00001-misc_information.pdf
1076,,35622-48-1,,,,DMSO,CS(=O)C,5.8,Ejoc202001649-sup-00001-misc_information.pdf
1077,T,534-52-1,CC1=CC(=CC(=C1O)[N+](=O)[O-])[N+](=O)[O-],534-52-1,"2-methyl-4,6-dinitrophenol",DMSO,CS(=O)C,4.59,Ejoc202001649-sup-00001-misc_information.pdf
1078,T,573-56-8,C1=CC(=C(C(=C1)[N+](=O)[O-])O)[N+](=O)[O-],573-56-8,"2,6-dinitrophenol",DMSO,CS(=O)C,4.9,Ejoc202001649-sup-00001-misc_information.pdf
1079,T,51-28-5,C1=CC(=C(C=C1[N+](=O)[O-])[N+](=O)[O-])O,51-28-5,"2,4-dinitrophenol",DMSO,CS(=O)C,5.1,Ejoc202001649-sup-00001-misc_information.pdf
1080,T,58432-55-6,FC1=C(F)C(=C(F)C(=C1C(C#N)C2=C(F)C(=C(C(=C2F)F)C(F)(F)F)F)F)C(F)(F)F,58432-55-6,"2,2-bis[2,3,5,6-tetrafluoro-4-(trifluoromethyl)phenyl]acetonitrile",DMSO,CS(=O)C,3.3,Ejoc202001649-sup-00001-misc_information.pdf
1081,T,32251-53-9,CCOC(=O)C(C#N)C1=C(C(=C(C(=C1F)F)C(F)(F)F)F)F,32251-53-9,"ethyl 2-cyano-2-[2,3,5,6-tetrafluoro-4-(trifluoromethyl)phenyl]acetate",DMSO,CS(=O)C,3,Ejoc202001649-sup-00001-misc_information.pdf
1082,T,55810-61-2,CCOC(=O)C(C#N)C1=C(F)C(=NC(=C1F)F)F,55810-61-2,ethyl 2-cyano-2-(perfluoropyridin-4-yl)acetate,DMSO,CS(=O)C,3.2,Ejoc202001649-sup-00001-misc_information.pdf
1083,T,81-07-2,C1=CC=C2C(=C1)C(=O)NS2(=O)=O,128-44-9,"1,1-dioxo-1,2-benzothiazol-3-one",DMSO,CS(=O)C,4,Ejoc202001649-sup-00001-misc_information.pdf
1084,T,791616-63-2,CC(C)C1=CC(=C(C(=C1)C(C)C)C2=CC3=CC=CC=C3C4=C2OP(=O)(OC5=C4C6=CC=CC=C6C=C5C7=C(C=C(C=C7C(C)C)C(C)C)C(C)C)O)C(C)C,791616-63-2,"13-hydroxy-10,16-bis[2,4,6-tri(propan-2-yl)phenyl]-12,14-dioxa-135-phosphapentacyclo[13.8.0.02,11.03,8.018,23]tricosa-1(15),2(11),3,5,7,9,16,18,20,22-decaene 13-oxide",DMSO,CS(=O)C,4.22,Ejoc202001649-sup-00001-misc_information.pdf
1085,,64934-72-1,,,,DMSO,CS(=O)C,2.4,Ejoc202001649-sup-00001-misc_information.pdf
1086,T,88-89-1,C1=C(C=C(C(=C1[N+](=O)[O-])O)[N+](=O)[O-])[N+](=O)[O-],88-89-1,"2,4,6-trinitrophenol",DMSO,CS(=O)C,-1.9,Ejoc202001649-sup-00001-misc_information.pdf
1087,T,480-68-2,C1(C(=O)NC(=O)NC1=O)[N+](=O)[O-],480-68-2,"5-nitro-1,3-diazinane-2,4,6-trione",DMSO,CS(=O)C,0.8,Ejoc202001649-sup-00001-misc_information.pdf
1088,T,723294-91-5,C1(=C(C(=C(C(=C1C(F)(F)F)C(F)(F)F)O)C(F)(F)F)C(F)(F)F)C(F)(F)F,723294-91-5,"2,3,4,5,6-pentakis(trifluoromethyl)phenol",DMSO,CS(=O)C,3.1,Ejoc202001649-sup-00001-misc_information.pdf
1089,T,7647-01-0,Cl,7647-01-0,chlorane,DMSO,CS(=O)C,-2,Ejoc202001649-sup-00001-misc_information.pdf
1090,T,40906-82-9,C1=CC=C(C=C1)C(S(=O)(=O)C(F)(F)F)S(=O)(=O)C(F)(F)F,40906-82-9,bis(trifluoromethylsulfonyl)methylbenzene,DMSO,CS(=O)C,2,Ejoc202001649-sup-00001-misc_information.pdf
1091,T,10035-10-6,Br,10035-10-6,bromane,DMSO,CS(=O)C,-6.8,Ejoc202001649-sup-00001-misc_information.pdf
1092,T,10034-85-2,I,10034-85-2,iodane,DMSO,CS(=O)C,-10.9,Ejoc202001649-sup-00001-misc_information.pdf
1093,T,3002-30-0,COC(=O)C1C2=CC=CC=C2C3=CC=CC=C13,3002-30-0,methyl 9H-fluorene-9-carboxylate,DCE,C(CCl)Cl,58.1,Ejoc202001649-sup-00001-misc_information.pdf
1094,T,58432-44-3,CC1=C(F)C(=C(C(C#N)C2=C(F)C(=C(C)C(=C2F)F)F)C(=C1F)F)F,58432-44-3,"2,2-bis(2,3,5,6-tetrafluoro-4-methylphenyl)acetonitrile",DCE,C(CCl)Cl,57.8,Ejoc202001649-sup-00001-misc_information.pdf
1095,T,52345-34-3,CC1=C(F)C(=C([C@@H](C#N)C2=C(F)C(=C(F)C(=C2F)F)F)C(=C1F)F)F,52345-34-3,"(R)-2-(perfluorophenyl)-2-(2,3,5,6-tetrafluoro-4-methylphenyl)acetonitrile",DCE,C(CCl)Cl,56.7,Ejoc202001649-sup-00001-misc_information.pdf
1096,T,1529-40-4,C1=CC=C2C(=C1)C(C3=CC=CC=C32)C#N,1529-40-4,9H-fluorene-9-carbonitrile,DCE,C(CCl)Cl,55.9,Ejoc202001649-sup-00001-misc_information.pdf
1097,T,42254-09-1,FC1=C(F)C(=C(F)C(=C1)F)C(C#N)C2=C(F)C(=C(F)C(=C2F)F)F,42254-09-1,"2-(2,3,4,5,6-pentafluorophenyl)-2-(2,3,5,6-tetrafluorophenyl)acetonitrile",DCE,C(CCl)Cl,55.7,Ejoc202001649-sup-00001-misc_information.pdf
1098,T,42238-36-8,FC1=C(F)C(=C(C(C#N)C2=C(F)C(=C(Cl)C(=C2F)F)F)C(=C1F)F)F,42238-36-8,"2-(4-chloro-2,3,5,6-tetrafluorophenyl)-2-(2,3,4,5,6-pentafluorophenyl)acetonitrile",DCE,C(CCl)Cl,54.7,Ejoc202001649-sup-00001-misc_information.pdf
1099,T,64934-68-5,C(#N)C(C1=C(C2=C(C(=C1F)F)C(=C(C(=C2F)F)F)F)F)C3=C(C(=C(C(=C3F)F)F)F)F,64934-68-5,"2-(1,3,4,5,6,7,8-heptafluoronaphthalen-2-yl)-2-(2,3,4,5,6-pentafluorophenyl)acetonitrile",DCE,C(CCl)Cl,54.4,Ejoc202001649-sup-00001-misc_information.pdf
1100,T,62325-38-6,C(#N)C(C1=C(C2=C(C(=C1F)F)C(=C(C(=C2F)F)F)F)F)C3=C(C4=C(C(=C3F)F)C(=C(C(=C4F)F)F)F)F,62325-38-6,"2,2-bis(1,3,4,5,6,7,8-heptafluoronaphthalen-2-yl)acetonitrile",DCE,C(CCl)Cl,53.4,Ejoc202001649-sup-00001-misc_information.pdf
1101,T,63264-80-2,C1(C2=C(C3=C1C(=C(C(=C3F)F)F)F)C(=C(C(=C2F)F)F)F)C4=C(C(=C(C(=C4F)F)F)F)F,63264-80-2,"1,2,3,4,5,6,7,8-octafluoro-9-(2,3,4,5,6-pentafluorophenyl)-9H-fluorene",DCE,C(CCl)Cl,53.8,Ejoc202001649-sup-00001-misc_information.pdf
1102,T,42238-35-7,FC1=C(F)C(=C(C(C#N)C2=CC=C(C=C2)C(F)(F)F)C(=C1F)F)F,42238-35-7,2-(perfluorophenyl)-2-(4-(trifluoromethyl)phenyl)acetonitrile,DCE,C(CCl)Cl,52.3,Ejoc202001649-sup-00001-misc_information.pdf
1103,T,2340-87-6,CCOC(=O)C(C#N)C1=C(C(=C(C(=C1F)F)F)F)F,2340-87-6,"ethyl 2-cyano-2-(2,3,4,5,6-pentafluorophenyl)acetate",DCE,C(CCl)Cl,52.5,Ejoc202001649-sup-00001-misc_information.pdf
1104,T,62325-34-2,CCOC(=O)C(C#N)C1=C(F)C2=C(F)C(=C(F)C(=C2C(=C1F)F)F)F,62325-34-2,"ethyl 2-cyano-2-(1,3,4,5,6,7,8-heptafluoronaphthalen-2-yl)acetate",DCE,C(CCl)Cl,52,Ejoc202001649-sup-00001-misc_information.pdf
1105,,4-Cl-C6F4-CH(CN)COOEt,no matches,,-,DCE,C(CCl)Cl,52.2,Ejoc202001649-sup-00001-misc_information.pdf
1106,T,62325-51-3,FC1=NC(=C(F)C(=C1F)C(C#N)C2=C(F)C(=C(F)C(=C2F)F)F)F,62325-51-3,"2-(2,3,4,5,6-pentafluorophenyl)-2-(2,3,5,6-tetrafluoropyridin-4-yl)acetonitrile",DCE,C(CCl)Cl,50.5,Ejoc202001649-sup-00001-misc_information.pdf
1107,T,32251-53-9,CCOC(=O)C(C#N)C1=C(C(=C(C(=C1F)F)C(F)(F)F)F)F,32251-53-9,"ethyl 2-cyano-2-[2,3,5,6-tetrafluoro-4-(trifluoromethyl)phenyl]acetate",DCE,C(CCl)Cl,50.6,Ejoc202001649-sup-00001-misc_information.pdf
1108,T,55810-61-2,CCOC(=O)C(C#N)C1=C(F)C(=NC(=C1F)F)F,55810-61-2,ethyl 2-cyano-2-(perfluoropyridin-4-yl)acetate,DCE,C(CCl)Cl,49.4,Ejoc202001649-sup-00001-misc_information.pdf
1109,T,99726-60-0,C1=CC(=CC(=C1)C(F)(F)F)C(C#N)C#N,99726-60-0,2-[3-(trifluoromethyl)phenyl]propanedinitrile,DCE,C(CCl)Cl,49,Ejoc202001649-sup-00001-misc_information.pdf
1110,,64934-72-1,,,,DCE,C(CCl)Cl,47.3,Ejoc202001649-sup-00001-misc_information.pdf
1111,,"2,3,4,5,6-(CF3)5-C6-CH(CN)COOEt",no matches,,-,DCE,C(CCl)Cl,47.8,Ejoc202001649-sup-00001-misc_information.pdf
1112,T,55810-63-4,FC1=C(F)C(=C(F)C(=C1)F)C(C#N)C#N,55810-63-4,"2-(2,3,5,6-tetrafluorophenyl)propanedinitrile",DCE,C(CCl)Cl,47.5,Ejoc202001649-sup-00001-misc_information.pdf
1113,T,62325-35-3,C(#N)C(C#N)C1=C(C2=C(C(=C1F)F)C(=C(C(=C2F)F)F)F)F,62325-35-3,"2-(1,3,4,5,6,7,8-heptafluoronaphthalen-2-yl)propanedinitrile",DCE,C(CCl)Cl,46.3,Ejoc202001649-sup-00001-misc_information.pdf
1114,T,88-89-1,C1=C(C=C(C(=C1[N+](=O)[O-])O)[N+](=O)[O-])[N+](=O)[O-],88-89-1,"2,4,6-trinitrophenol",DCE,C(CCl)Cl,45,Ejoc202001649-sup-00001-misc_information.pdf
1115,T,1018330-49-8,FC(F)(F)C1=C(C(C#N)C#N)C(=C(C(=C1)C(F)(F)F)C(F)(F)F)C(F)(F)F,1018330-49-8,"2-(2,3,4,6-tetrakis(trifluoromethyl)phenyl)malononitrile",DCE,C(CCl)Cl,44.2,Ejoc202001649-sup-00001-misc_information.pdf
1116,T,7647-01-0,Cl,7647-01-0,chlorane,DCE,C(CCl)Cl,45.2,Ejoc202001649-sup-00001-misc_information.pdf
1117,T,55852-24-9,C(#N)C(C#N)C1=C(C(=C(C(=C1F)F)C(F)(F)F)F)F,55852-24-9,"2-[2,3,5,6-tetrafluoro-4-(trifluoromethyl)phenyl]propanedinitrile",DCE,C(CCl)Cl,44.2,Ejoc202001649-sup-00001-misc_information.pdf
1118,T,100724-78-5,CC1=CC=C(C=C1)[S](=O)(=O)N[S](=O)(=O)C2=CC=C(C=C2)[N+]([O-])=O,100724-78-5,4-methyl-N-(4-nitrophenyl)sulfonylbenzenesulfonamide,DCE,C(CCl)Cl,43.3,Ejoc202001649-sup-00001-misc_information.pdf
1119,T,95468-16-9,C1=CC(=CC(=C1)S(=O)(=O)NS(=O)(=O)C2=CC=C(C=C2)Cl)[N+](=O)[O-],95468-16-9,N-(4-chlorophenyl)sulfonyl-3-nitrobenzenesulfonamide,DCE,C(CCl)Cl,42.4,Ejoc202001649-sup-00001-misc_information.pdf
1120,,"2,3,4,5,6-(CF3)5-C6-CH(CN)2",no matches,,-,DCE,C(CCl)Cl,42.2,Ejoc202001649-sup-00001-misc_information.pdf
1121,T,(4-NO2-C6H4-SO2)2NH,C1=CC(=CC=C1[N+](=O)[O-])S(=O)(=O)NS(=O)(=O)C2=CC=C(C=C2)[N+](=O)[O-],7/6/09,4-nitro-N-(4-nitrophenyl)sulfonylbenzenesulfonamide,DCE,C(CCl)Cl,41.1,Ejoc202001649-sup-00001-misc_information.pdf
1122,T,2226486-82-2,[O-][N+](=O)C1=CC=C(C=C1)[S](=O)(=O)N[S](=O)(=O)C2=CC(=C(Cl)C=C2)[N+]([O-])=O,2226486-82-2,-,DCE,C(CCl)Cl,40.7,Ejoc202001649-sup-00001-misc_information.pdf
1123,T,7664-93-9,OS(=O)(=O)O,7664-93-9,sulfuric acid,DCE,C(CCl)Cl,42.8,Ejoc202001649-sup-00001-misc_information.pdf
1124,T,64646-01-1,[O-][N+](=O)C1=C(Cl)C=CC(=C1)[S](=O)(=O)N[S](=O)(=O)C2=CC(=C(Cl)C=C2)[N+]([O-])=O,64646-01-1,4-chloro-N-((4-chloro-3-nitrophenyl)sulfonyl)-3-nitrobenzenesulfonamide,DCE,C(CCl)Cl,40.4,Ejoc202001649-sup-00001-misc_information.pdf
1125,T,1207878-53-2,[O-][N+](=O)C1=CC=C(C=C1)[S](=O)(=O)C(C#N)C#N,1207878-53-2,2-((4-nitrophenyl)sulfonyl)malononitrile,DCE,C(CCl)Cl,39.9,Ejoc202001649-sup-00001-misc_information.pdf
1126,T,10035-10-6,Br,10035-10-6,bromane,DCE,C(CCl)Cl,40.6,Ejoc202001649-sup-00001-misc_information.pdf
1127,T,882492-01-5,OC1=C(C=C(C=C1[S](F)(=O)=O)[S](F)(=O)=O)[S](F)(=O)=O,882492-01-5,"2-hydroxybenzene-1,3,5-trisulfonyl fluoride",DCE,C(CCl)Cl,39,Ejoc202001649-sup-00001-misc_information.pdf
1128,T,454-50-2,C(#N)C(C#N)C#N,454-50-2,methanetricarbonitrile,DCE,C(CCl)Cl,38.6,Ejoc202001649-sup-00001-misc_information.pdf
1129,T,174788-93-3,CC1=CC=C(C=C1)[S](=O)(=O)N[S](=O)(=N[S](=O)(=O)C(F)(F)F)C2=CC=C(Cl)C=C2,174788-93-3,N-(4-chloro-N-((trifluoromethyl)sulfonyl)phenylsulfonimidoyl)-4-methylbenzenesulfonamide,DCE,C(CCl)Cl,38,Ejoc202001649-sup-00001-misc_information.pdf
1130,T,71571-37-4,OC1=C(C=C(C=C1[S](=O)(=O)C(F)(F)F)[S](=O)(=O)C(F)(F)F)[S](=O)(=O)C(F)(F)F,71571-37-4,"2,4,6-tris((trifluoromethyl)sulfonyl)phenol",DCE,C(CCl)Cl,38.4,Ejoc202001649-sup-00001-misc_information.pdf
1131,T,27062-39-1,C(#N)C(=C(C#N)O)C#N,27062-39-1,"2-hydroxyethene-1,1,2-tricarbonitrile",DCE,C(CCl)Cl,36.3,Ejoc202001649-sup-00001-misc_information.pdf
1132,T,174788-91-1,[O-][N+](=O)C1=CC=C(C=C1)[S](=O)(=O)N[S](=O)(=O)C(F)(F)F,174788-91-1,4-nitro-N-(trifluoromethylsulfonyl)benzenesulfonamide,DCE,C(CCl)Cl,37.1,Ejoc202001649-sup-00001-misc_information.pdf
1133,T,174788-95-5,FC(F)(F)[S](=O)(=O)N=[S](=O)(N[S](=O)(=O)C1=CC=C(Cl)C=C1)C2=CC=C(Cl)C=C2,174788-95-5,-,DCE,C(CCl)Cl,37.1,Ejoc202001649-sup-00001-misc_information.pdf
1134,T,89-02-1,C1=CC(=C(C=C1[N+](=O)[O-])[N+](=O)[O-])S(=O)(=O)O,89-02-1,"2,4-dinitrobenzenesulfonic acid",DCE,C(CCl)Cl,36,Ejoc202001649-sup-00001-misc_information.pdf
1135,T,215395-09-8,N#CC1C=C(C#N)C(=C1)C#N,215395-09-8,"cyclopenta-2,5-diene-1,2,4-tricarbonitrile",DCE,C(CCl)Cl,38,Ejoc202001649-sup-00001-misc_information.pdf
1136,,4-Cl-C6H4-SO(=NTf)-NH-SO2-C6H4-4-NO2,no matches,-,-,DCE,C(CCl)Cl,35.9,Ejoc202001649-sup-00001-misc_information.pdf
1137,T,10034-85-2,I,10034-85-2,iodane,DCE,C(CCl)Cl,37.7,Ejoc202001649-sup-00001-misc_information.pdf
1138,T,120-72-9,C1=CC=C2C(=C1)C=CN2,120-72-9,1H-indole,DMF,CN(C)C=O,21.65,Ejoc202001649-sup-00001-misc_information.pdf
1139,T,108-95-2,C1=CC=C(C=C1)O,108-95-2,phenol,DMF,CN(C)C=O,18.4,Ejoc202001649-sup-00001-misc_information.pdf
1140,T,98-10-2,C1=CC=C(C=C1)S(=O)(=O)N,98-10-2,benzenesulfonamide,DMF,CN(C)C=O,17.06,Ejoc202001649-sup-00001-misc_information.pdf
1141,T,98-17-9,C1=CC(=CC(=C1)O)C(F)(F)F,98-17-9,3-(trifluoromethyl)phenol,DMF,CN(C)C=O,15.7,Ejoc202001649-sup-00001-misc_information.pdf
1142,T,402-46-0,C1=CC(=CC=C1F)S(=O)(=O)N,402-46-0,4-fluorobenzenesulfonamide,DMF,CN(C)C=O,16.67,Ejoc202001649-sup-00001-misc_information.pdf
1143,T,98-64-6,C1=CC(=CC=C1S(=O)(=O)N)Cl,98-64-6,4-chlorobenzenesulfonamide,DMF,CN(C)C=O,16.58,Ejoc202001649-sup-00001-misc_information.pdf
1144,T,672-58-2,C1=CC(=CC(=C1)S(=O)(=O)N)C(F)(F)F,672-58-2,3-(trifluoromethyl)benzenesulfonamide,DMF,CN(C)C=O,16.01,Ejoc202001649-sup-00001-misc_information.pdf
1145,T,6325-93-5,C1=CC(=CC=C1[N+](=O)[O-])S(=O)(=O)N,6325-93-5,4-nitrobenzenesulfonamide,DMF,CN(C)C=O,15.49,Ejoc202001649-sup-00001-misc_information.pdf
1146,T,64-19-7,CC(=O)O,64-19-7,acetic acid,DMF,CN(C)C=O,13.5,Ejoc202001649-sup-00001-misc_information.pdf
1147,T,88-75-5,C1=CC=C(C(=C1)[N+](=O)[O-])O,88-75-5,2-nitrophenol,DMF,CN(C)C=O,12.2,Ejoc202001649-sup-00001-misc_information.pdf
1148,T,65-85-0,C1=CC=C(C=C1)C(=O)O,65-85-0,benzoic acid,DMF,CN(C)C=O,12.3,Ejoc202001649-sup-00001-misc_information.pdf
1149,T,87-86-5,C1(=C(C(=C(C(=C1Cl)Cl)Cl)Cl)Cl)O,87-86-5,"2,3,4,5,6-pentachlorophenol",DMF,CN(C)C=O,7.97,Ejoc202001649-sup-00001-misc_information.pdf
1150,T,573-56-8,C1=CC(=C(C(=C1)[N+](=O)[O-])O)[N+](=O)[O-],573-56-8,"2,6-dinitrophenol",DMF,CN(C)C=O,6.18,Ejoc202001649-sup-00001-misc_information.pdf
1151,T,51-28-5,C1=CC(=C(C=C1[N+](=O)[O-])[N+](=O)[O-])O,51-28-5,"2,4-dinitrophenol",DMF,CN(C)C=O,6.33,Ejoc202001649-sup-00001-misc_information.pdf
1152,T,3695-00-9,CC1=CC=C(C=C1)S(=O)(=O)NS(=O)(=O)C2=CC=C(C=C2)C,3695-00-9,4-methyl-N-(4-methylphenyl)sulfonylbenzenesulfonamide,DMF,CN(C)C=O,3.87,Ejoc202001649-sup-00001-misc_information.pdf
1153,T,2618-96-4,C1=CC=C(C=C1)S(=O)(=O)NS(=O)(=O)C2=CC=CC=C2,2618-96-4,N-(benzenesulfonyl)benzenesulfonamide,DMF,CN(C)C=O,3.66,Ejoc202001649-sup-00001-misc_information.pdf
1154,T,88-89-1,C1=C(C=C(C(=C1[N+](=O)[O-])O)[N+](=O)[O-])[N+](=O)[O-],88-89-1,"2,4,6-trinitrophenol",DMF,CN(C)C=O,1.1,Ejoc202001649-sup-00001-misc_information.pdf
1155,T,131-73-7,C1=C(C=C(C(=C1[N+](=O)[O-])NC2=C(C=C(C=C2[N+](=O)[O-])[N+](=O)[O-])[N+](=O)[O-])[N+](=O)[O-])[N+](=O)[O-],131-73-7,"2,4,6-trinitro-N-(2,4,6-trinitrophenyl)aniline",DMF,CN(C)C=O,1.28,Ejoc202001649-sup-00001-misc_information.pdf
1156,T,7647-01-0,Cl,7647-01-0,chlorane,DMF,CN(C)C=O,2.36,Ejoc202001649-sup-00001-misc_information.pdf
1157,T,2725-55-5,C1=CC(=CC=C1S(=O)(=O)NS(=O)(=O)C2=CC=C(C=C2)Cl)Cl,2725-55-5,4-chloro-N-(4-chlorophenyl)sulfonylbenzenesulfonamide,DMF,CN(C)C=O,3.46,Ejoc202001649-sup-00001-misc_information.pdf
1158,T,74-89-5,C[NH3+],17000-00-9,methylazanium,H2O,O,10.62,Bases_pKa_values_MeCN_DMSO_THF_Water.pdf
1159,T,75-04-7,CC[NH3+],16999-99-8,ethylazanium,H2O,O,10.63,Bases_pKa_values_MeCN_DMSO_THF_Water.pdf
1160,T,107-10-8,CCC[NH3+],,propylazanium,H2O,O,10.53,Bases_pKa_values_MeCN_DMSO_THF_Water.pdf
1161,T,75-31-0,CC(C)[NH3+],,propan-2-ylazanium,H2O,O,10.65,Bases_pKa_values_MeCN_DMSO_THF_Water.pdf
1162,T,109-73-9,CCCC[NH3+],-,butylazanium,H2O,O,10.59,Bases_pKa_values_MeCN_DMSO_THF_Water.pdf
1163,T,78-81-9,CC(C)C[NH3+],58471-06-0,2-methylpropylazanium,H2O,O,10.42,Bases_pKa_values_MeCN_DMSO_THF_Water.pdf
1164,T,100-46-9,C1=CC=C(C=C1)C[NH3+],-,benzylazanium,H2O,O,9.34,Bases_pKa_values_MeCN_DMSO_THF_Water.pdf
1165,T,62-53-3,C1=CC=C(C=C1)[NH3+],65756-50-5,phenylazanium,H2O,O,4.62,Bases_pKa_values_MeCN_DMSO_THF_Water.pdf
1166,T,7664-41-7,[NH4+],14798-03-9,azanium,H2O,O,9.21,Bases_pKa_values_MeCN_DMSO_THF_Water.pdf