,solute,solute SMILES,computed CAS,computed IUPAC,solvent,solvent SMILES,pka,ref
1041,80588-36-9,CC1=C(F)C(=C(NC2=C(F)C(=C(F)C(=C2F)F)F)C(=C1F)F)F,80588-36-9,"2,3,5,6-tetrafluoro-4-methyl-N-(2,3,4,5,6-pentafluorophenyl)aniline",DMSO,CS(=O)C,12.3,Ejoc202001649-sup-00001-misc_information.pdf
163,"2,4,6-Trimethylbenzoicacid",CC1=CC(=C(C(=C1)C)C(=O)O)C,480-63-7,"2,4,6-trimethylbenzoic acid",MeCN,CC#N,20.5,MeCN_Acids_COSMO-RS_2008_Table.pdf
857,534-52-1,CC1=CC(=CC(=C1O)[N+](=O)[O-])[N+](=O)[O-],534-52-1,"2-methyl-4,6-dinitrophenol",MeCN,CC#N,16.97,Ejoc202001649-sup-00001-misc_information.pdf
1007,534-52-1,CC1=CC(=CC(=C1O)[N+](=O)[O-])[N+](=O)[O-],534-52-1,"2-methyl-4,6-dinitrophenol",H2O,O,4.35,Ejoc202001649-sup-00001-misc_information.pdf
1077,534-52-1,CC1=CC(=CC(=C1O)[N+](=O)[O-])[N+](=O)[O-],534-52-1,"2-methyl-4,6-dinitrophenol",DMSO,CS(=O)C,4.59,Ejoc202001649-sup-00001-misc_information.pdf
142,3-Toluenesulfonamide,CC1=CC(=CC=C1)S(=O)(=O)N,1899-94-1,3-methylbenzenesulfonamide,MeCN,CC#N,24.67,MeCN_Acids_COSMO-RS_2008_Table.pdf
131,1-Methyl-3-nitrophenoxazine,CC1=CC(=CC2=C1NC3=CC=CC=C3O2)[N+]([O-])=O,-,-,MeCN,CC#N,25.8,MeCN_Acids_COSMO-RS_2008_Table.pdf
72,174788-93-3,CC1=CC=C(C=C1)[S](=O)(=O)N[S](=O)(=N[S](=O)(=O)C(F)(F)F)C2=CC=C(Cl)C=C2,174788-93-3,N-(4-chloro-N-((trifluoromethyl)sulfonyl)phenylsulfonimidoyl)-4-methylbenzenesulfonamide,MeCN,CC#N,5.14,MeCN_Acids_COSMO-RS_2008_Table.pdf
453,4-Cl-C6H4SO(=NTf)NHTos,CC1=CC=C(C=C1)[S](=O)(=O)N[S](=O)(=N[S](=O)(=O)C(F)(F)F)C2=CC=C(Cl)C=C2,174788-93-3,-,MeCN,CC#N,4.81,DCE_2011_pKa_Table_MeCN.pdf
499,4-Cl-C6H4SO(=NTf)NHTos,CC1=CC=C(C=C1)[S](=O)(=O)N[S](=O)(=N[S](=O)(=O)C(F)(F)F)C2=CC=C(Cl)C=C2,174788-93-3,-,MeCN,CC#N,4.81,a_unified_view_to_bronsted_acidity_scales.pdf
965,174788-93-3,CC1=CC=C(C=C1)[S](=O)(=O)N[S](=O)(=N[S](=O)(=O)C(F)(F)F)C2=CC=C(Cl)C=C2,174788-93-3,N-(4-chloro-N-((trifluoromethyl)sulfonyl)phenylsulfonimidoyl)-4-methylbenzenesulfonamide,MeCN,CC#N,4.78,Ejoc202001649-sup-00001-misc_information.pdf
1129,174788-93-3,CC1=CC=C(C=C1)[S](=O)(=O)N[S](=O)(=N[S](=O)(=O)C(F)(F)F)C2=CC=C(Cl)C=C2,174788-93-3,N-(4-chloro-N-((trifluoromethyl)sulfonyl)phenylsulfonimidoyl)-4-methylbenzenesulfonamide,DCE,C(CCl)Cl,38,Ejoc202001649-sup-00001-misc_information.pdf
1554,4-Cl-C6H4SO(=NTf)NHTos,CC1=CC=C(C=C1)[S](=O)(=O)N[S](=O)(=N[S](=O)(=O)C(F)(F)F)C2=CC=C(Cl)C=C2,174788-93-3,,MeCN,CC#N,4.81,leito_acids
1599,4-Cl-C6H4SO(=NTf)NHTos,CC1=CC=C(C=C1)[S](=O)(=O)N[S](=O)(=N[S](=O)(=O)C(F)(F)F)C2=CC=C(Cl)C=C2,174788-93-3,,DCE,C(CCl)Cl,38,leito_acids
76,215395-07-6,CC1=CC=C(C=C1)[S](=O)(=O)N[S](=O)(=O)C(F)(F)F,215395-07-6,4-methyl-N-(trifluoromethylsulfonyl)benzenesulfonamide,MeCN,CC#N,6.17,MeCN_Acids_COSMO-RS_2008_Table.pdf
443,4-Me-C6H4SO2NHTf,CC1=CC=C(C=C1)[S](=O)(=O)N[S](=O)(=O)C(F)(F)F,215395-07-6,4-methyl-N-(trifluoromethylsulfonyl)benzenesulfonamide,MeCN,CC#N,5.86,DCE_2011_pKa_Table_MeCN.pdf
952,215395-07-6,CC1=CC=C(C=C1)[S](=O)(=O)N[S](=O)(=O)C(F)(F)F,215395-07-6,4-methyl-N-(trifluoromethylsulfonyl)benzenesulfonamide,MeCN,CC#N,5.82,Ejoc202001649-sup-00001-misc_information.pdf
68,100724-78-5,CC1=CC=C(C=C1)[S](=O)(=O)N[S](=O)(=O)C2=CC=C(C=C2)[N+]([O-])=O,100724-78-5,4-methyl-N-(4-nitrophenyl)sulfonylbenzenesulfonamide,MeCN,CC#N,10.04,MeCN_Acids_COSMO-RS_2008_Table.pdf
913,100724-78-5,CC1=CC=C(C=C1)[S](=O)(=O)N[S](=O)(=O)C2=CC=C(C=C2)[N+]([O-])=O,100724-78-5,4-methyl-N-(4-nitrophenyl)sulfonylbenzenesulfonamide,MeCN,CC#N,10.04,Ejoc202001649-sup-00001-misc_information.pdf
1118,100724-78-5,CC1=CC=C(C=C1)[S](=O)(=O)N[S](=O)(=O)C2=CC=C(C=C2)[N+]([O-])=O,100724-78-5,4-methyl-N-(4-nitrophenyl)sulfonylbenzenesulfonamide,DCE,C(CCl)Cl,43.3,Ejoc202001649-sup-00001-misc_information.pdf
87,69173-28-0,CC1=CC=C(C=C1)[S](=O)(=O)N[S](=O)(=O)C2=CC=C(Cl)C=C2,69173-28-0,N-(4-chlorophenyl)sulfonyl-4-methylbenzenesulfonamide,MeCN,CC#N,11.1,MeCN_Acids_COSMO-RS_2008_Table.pdf
898,69173-28-0,CC1=CC=C(C=C1)[S](=O)(=O)N[S](=O)(=O)C2=CC=C(Cl)C=C2,69173-28-0,N-(4-chlorophenyl)sulfonyl-4-methylbenzenesulfonamide,MeCN,CC#N,11.1,Ejoc202001649-sup-00001-misc_information.pdf
61,343337-70-2,CC1=CC=C(C=C1)C(=O)NS(=O)(=O)C(F)(F)F,343337-70-2,4-methyl-N-(trifluoromethylsulfonyl)benzamide,MeCN,CC#N,11.46,MeCN_Acids_COSMO-RS_2008_Table.pdf
893,343337-70-2,CC1=CC=C(C=C1)C(=O)NS(=O)(=O)C(F)(F)F,343337-70-2,4-methyl-N-(trifluoromethylsulfonyl)benzamide,MeCN,CC#N,11.46,Ejoc202001649-sup-00001-misc_information.pdf
1496,4-Me-C6H4C(=O)NHTf,CC1=CC=C(C=C1)C(=O)NS(=O)(=O)C(F)(F)F,343337-70-2,4-methyl-N-(trifluoromethylsulfonyl)benzamide,MeCN,CC#N,11.46,leito_acids
2,33534-88-2,CC1=CC=C(C=C1)C(C#N)C#N,33534-88-2,2-(4-methylphenyl)propanedinitrile,MeCN,CC#N,17.59,MeCN_Acids_COSMO-RS_2008_Table.pdf
852,33534-88-2,CC1=CC=C(C=C1)C(C#N)C#N,33534-88-2,2-(4-methylphenyl)propanedinitrile,MeCN,CC#N,17.57,Ejoc202001649-sup-00001-misc_information.pdf
1074,33534-88-2,CC1=CC=C(C=C1)C(C#N)C#N,33534-88-2,2-(4-methylphenyl)propanedinitrile,DMSO,CS(=O)C,4.85,Ejoc202001649-sup-00001-misc_information.pdf
1469,4-Me-C6H4CH(CN)2,CC1=CC=C(C=C1)C(C#N)C#N,33534-88-2,2-(4-methylphenyl)propanedinitrile,MeCN,CC#N,17.59,leito_acids
82,500721-89-1,CC1=CC=C(C=C1)C(N[S](=O)(=O)C(F)(F)F)=N[S](=O)(=O)C(F)(F)F,500721-89-1,"4-methyl-N,N'-bis(trifluoromethylsulfonyl)benzenecarboximidamide",MeCN,CC#N,6.19,MeCN_Acids_COSMO-RS_2008_Table.pdf
444,4-Me-C6H4C(=NTf)NHTf,CC1=CC=C(C=C1)C(N[S](=O)(=O)C(F)(F)F)=N[S](=O)(=O)C(F)(F)F,500721-89-1,"4-methyl-N,N'-bis(trifluoromethylsulfonyl)benzenecarboximidamide",MeCN,CC#N,5.86,DCE_2011_pKa_Table_MeCN.pdf
724,4-Me-C6H4-C(=NTf)-NH-Tf,CC1=CC=C(C=C1)C(N[S](=O)(=O)C(F)(F)F)=N[S](=O)(=O)C(F)(F)F,500721-89-1,"4-methyl-N,N'-bis(trifluoromethylsulfonyl)benzenecarboximidamide",MeCN,CC#N,5.82,pKa_values_of_acids_in_acetonitrile.pdf
953,500721-89-1,CC1=CC=C(C=C1)C(N[S](=O)(=O)C(F)(F)F)=N[S](=O)(=O)C(F)(F)F,500721-89-1,"4-methyl-N,N'-bis(trifluoromethylsulfonyl)benzenecarboximidamide",MeCN,CC#N,5.82,Ejoc202001649-sup-00001-misc_information.pdf
1543,4-Me-C6H4C(=NTf)NHTf,CC1=CC=C(C=C1)C(N[S](=O)(=O)C(F)(F)F)=N[S](=O)(=O)C(F)(F)F,500721-89-1,"4-methyl-N,N'-bis(trifluoromethylsulfonyl)benzenecarboximidamide",MeCN,CC#N,5.86,leito_acids
196,p-Cresole,CC1=CC=C(C=C1)O,106-44-5,4-methylphenol,MeCN,CC#N,27.45,MeCN_Acids_COSMO-RS_2008_Table.pdf
136,4-Methylbenzenesulfonamide,CC1=CC=C(C=C1)S(=O)(=O)N,70-55-3,4-methylbenzenesulfonamide,MeCN,CC#N,24.82,MeCN_Acids_COSMO-RS_2008_Table.pdf
766,70-55-3,CC1=CC=C(C=C1)S(=O)(=O)N,70-55-3,4-methylbenzenesulfonamide,MeCN,CC#N,26.95,Ejoc202001649-sup-00001-misc_information.pdf
979,70-55-3,CC1=CC=C(C=C1)S(=O)(=O)N,70-55-3,4-methylbenzenesulfonamide,H2O,O,10.21,Ejoc202001649-sup-00001-misc_information.pdf
1030,70-55-3,CC1=CC=C(C=C1)S(=O)(=O)N,70-55-3,4-methylbenzenesulfonamide,DMSO,CS(=O)C,16.3,Ejoc202001649-sup-00001-misc_information.pdf
723,Tos-NH-Tf,CC1=CC=C(C=C1)S(=O)(=O)NS(=O)(=O)C(F)(F)F,215395-07-6,4-methyl-N-(trifluoromethylsulfonyl)benzenesulfonamide,MeCN,CC#N,5.82,pKa_values_of_acids_in_acetonitrile.pdf
1544,TosNHTf,CC1=CC=C(C=C1)S(=O)(=O)NS(=O)(=O)C(F)(F)F,215395-07-6,4-methyl-N-(trifluoromethylsulfonyl)benzenesulfonamide,MeCN,CC#N,5.86,leito_acids
1510,4-Cl-3-NO2-C6H3SO2NHTos,CC1=CC=C(C=C1)S(=O)(=O)NS(=O)(=O)C2=CC(=C(C=C2)Cl)[N+](=O)[O-],215395-06-5,4-chloro-N-(4-methylphenyl)sulfonyl-3-nitrobenzenesulfonamide,MeCN,CC#N,9.71,leito_acids
418,4-NO2-C6H4SO2NHTos,CC1=CC=C(C=C1)S(=O)(=O)NS(=O)(=O)C2=CC=C(C=C2)[N+](=O)[O-],100724-78-5,4-methyl-N-(4-nitrophenyl)sulfonylbenzenesulfonamide,MeCN,CC#N,10.04,DCE_2011_pKa_Table_MeCN.pdf
489,4-NO2-C6H4SO2NHTos,CC1=CC=C(C=C1)S(=O)(=O)NS(=O)(=O)C2=CC=C(C=C2)[N+](=O)[O-],100724-78-5,4-methyl-N-(4-nitrophenyl)sulfonylbenzenesulfonamide,MeCN,CC#N,10.04,a_unified_view_to_bronsted_acidity_scales.pdf
684,4-NO2-C6H4SO2NHTos,CC1=CC=C(C=C1)S(=O)(=O)NS(=O)(=O)C2=CC=C(C=C2)[N+](=O)[O-],100724-78-5,4-methyl-N-(4-nitrophenyl)sulfonylbenzenesulfonamide,MeCN,CC#N,10.04,pKa_values_of_acids_in_acetonitrile.pdf
1509,4-NO2-C6H4SO2NHTos,CC1=CC=C(C=C1)S(=O)(=O)NS(=O)(=O)C2=CC=C(C=C2)[N+](=O)[O-],100724-78-5,4-methyl-N-(4-nitrophenyl)sulfonylbenzenesulfonamide,MeCN,CC#N,10.04,leito_acids
1589,4-NO2-C6H4SO2NHTos,CC1=CC=C(C=C1)S(=O)(=O)NS(=O)(=O)C2=CC=C(C=C2)[N+](=O)[O-],100724-78-5,4-methyl-N-(4-nitrophenyl)sulfonylbenzenesulfonamide,DCE,C(CCl)Cl,43.3,leito_acids
79,3695-00-9,CC1=CC=C(C=C1)S(=O)(=O)NS(=O)(=O)C2=CC=C(C=C2)C,3695-00-9,4-methyl-N-(4-methylphenyl)sulfonylbenzenesulfonamide,MeCN,CC#N,11.97,MeCN_Acids_COSMO-RS_2008_Table.pdf
658,Tos2NH,CC1=CC=C(C=C1)S(=O)(=O)NS(=O)(=O)C2=CC=C(C=C2)C,3695-00-9,4-methyl-N-(4-methylphenyl)sulfonylbenzenesulfonamide,MeCN,CC#N,11.97,pKa_values_of_acids_in_acetonitrile.pdf
887,3695-00-9,CC1=CC=C(C=C1)S(=O)(=O)NS(=O)(=O)C2=CC=C(C=C2)C,3695-00-9,4-methyl-N-(4-methylphenyl)sulfonylbenzenesulfonamide,MeCN,CC#N,11.97,Ejoc202001649-sup-00001-misc_information.pdf
1152,3695-00-9,CC1=CC=C(C=C1)S(=O)(=O)NS(=O)(=O)C2=CC=C(C=C2)C,3695-00-9,4-methyl-N-(4-methylphenyl)sulfonylbenzenesulfonamide,DMF,CN(C)C=O,3.87,Ejoc202001649-sup-00001-misc_information.pdf
1493,Tos2NH,CC1=CC=C(C=C1)S(=O)(=O)NS(=O)(=O)C2=CC=C(C=C2)C,3695-00-9,4-methyl-N-(4-methylphenyl)sulfonylbenzenesulfonamide,MeCN,CC#N,11.97,leito_acids
1498,4-Cl-C6H4SO2NHTos,CC1=CC=C(C=C1)S(=O)(=O)NS(=O)(=O)C2=CC=C(C=C2)Cl,69173-28-0,N-(4-chlorophenyl)sulfonyl-4-methylbenzenesulfonamide,MeCN,CC#N,11.1,leito_acids
56,4-Methylbenzenesulfonic acid,CC1=CC=C(C=C1)S(=O)(=O)O,104-15-4,4-methylbenzenesulfonic acid,MeCN,CC#N,8.45,MeCN_Acids_COSMO-RS_2008_Table.pdf
216,4-Methylbenzenesulfonic acid,CC1=CC=C(C=C1)S(=O)(=O)O,104-15-4,4-methylbenzenesulfonic acid,MeCN,CC#N,8.01,MeCN_Acids_COSMO-RS_2008_Table.pdf
424,4-Methylbenzenesulfonic acid,CC1=CC=C(C=C1)S(=O)(=O)O,104-15-4,4-methylbenzenesulfonic acid,MeCN,CC#N,8.5,DCE_2011_pKa_Table_MeCN.pdf
693,TosOH,CC1=CC=C(C=C1)S(=O)(=O)O,104-15-4,4-methylbenzenesulfonic acid,MeCN,CC#N,8.5,pKa_values_of_acids_in_acetonitrile.pdf
922,104-15-4,CC1=CC=C(C=C1)S(=O)(=O)O,104-15-4,4-methylbenzenesulfonic acid,MeCN,CC#N,8.5,Ejoc202001649-sup-00001-misc_information.pdf
1515,TosOH,CC1=CC=C(C=C1)S(=O)(=O)O,104-15-4,4-methylbenzenesulfonic acid,MeCN,CC#N,8.5,leito_acids
325,2-methylpyridine,CC1=CC=CC=[NH+]1,,2-methylpyridin-1-ium,MeCN,CC#N,13.32,pKa_values_of_nitrogen_heterocycles.pdf
342,2-methylaniline,CC1=CC=CC=C1[NH3+],,(2-methylphenyl)azanium,MeCN,CC#N,10.5,pKa_values_of_nitrogen_heterocycles.pdf
198,2-Methylphenol,CC1=CC=CC=C1O,95-48-7,2-methylphenol,MeCN,CC#N,27.5,MeCN_Acids_COSMO-RS_2008_Table.pdf
375,Thymine,CC1=CNC(=O)[NH2+]C1=O,,"5-methyl-1H-pyrimidin-3-ium-2,4-dione",MeCN,CC#N,2.7,pKa_values_of_nitrogen_heterocycles.pdf
408,Thymine,CC1=CNC(=O)[NH2+]C1=O,,"5-methyl-1H-pyrimidin-3-ium-2,4-dione",H2O,O,0,pKa_values_of_nitrogen_heterocycles.pdf
94,1-(4-Nitrophenyl)-1-nitropropane,CCC(C1=CC=C(C=C1)[N+]([O-])=O)[N+]([O-])=O,126661-13-0,1-nitro-4-(1-nitropropyl)benzene,MeCN,CC#N,23.9,MeCN_Acids_COSMO-RS_2008_Table.pdf
1183,4458-31-5,CCC[NH+](CC)CC,-,diethyl(propyl)azanium,H2O,O,10.5,Bases_pKa_values_MeCN_DMSO_THF_Water.pdf
1253,4458-31-5,CCC[NH+](CC)CC,-,diethyl(propyl)azanium,DMSO,CS(=O)C,9,Bases_pKa_values_MeCN_DMSO_THF_Water.pdf
1315,4458-31-5,CCC[NH+](CC)CC,-,diethyl(propyl)azanium,MeCN,CC#N,18.2,Bases_pKa_values_MeCN_DMSO_THF_Water.pdf
1383,4458-31-5,CCC[NH+](CC)CC,-,diethyl(propyl)azanium,THF,C1CCOC1,12.7,Bases_pKa_values_MeCN_DMSO_THF_Water.pdf
1176,102-69-2,CCC[NH+](CCC)CCC,-,tripropylazanium,H2O,O,10.65,Bases_pKa_values_MeCN_DMSO_THF_Water.pdf
1247,102-69-2,CCC[NH+](CCC)CCC,-,tripropylazanium,DMSO,CS(=O)C,10.7,Bases_pKa_values_MeCN_DMSO_THF_Water.pdf
1308,102-69-2,CCC[NH+](CCC)CCC,-,tripropylazanium,MeCN,CC#N,18.26,Bases_pKa_values_MeCN_DMSO_THF_Water.pdf
1377,102-69-2,CCC[NH+](CCC)CCC,-,tripropylazanium,THF,C1CCOC1,13,Bases_pKa_values_MeCN_DMSO_THF_Water.pdf
1169,142-84-7,CCC[NH2+]CCC,-,dipropylazanium,H2O,O,11,Bases_pKa_values_MeCN_DMSO_THF_Water.pdf
1241,142-84-7,CCC[NH2+]CCC,-,dipropylazanium,DMSO,CS(=O)C,10.3,Bases_pKa_values_MeCN_DMSO_THF_Water.pdf
1302,142-84-7,CCC[NH2+]CCC,-,dipropylazanium,MeCN,CC#N,18.8,Bases_pKa_values_MeCN_DMSO_THF_Water.pdf
1160,107-10-8,CCC[NH3+],,propylazanium,H2O,O,10.53,Bases_pKa_values_MeCN_DMSO_THF_Water.pdf
1232,107-10-8,CCC[NH3+],,propylazanium,DMSO,CS(=O)C,10.7,Bases_pKa_values_MeCN_DMSO_THF_Water.pdf
1293,107-10-8,CCC[NH3+],,propylazanium,MeCN,CC#N,18.44,Bases_pKa_values_MeCN_DMSO_THF_Water.pdf
1365,107-10-8,CCC[NH3+],,propylazanium,THF,C1CCOC1,13.8,Bases_pKa_values_MeCN_DMSO_THF_Water.pdf
179,Butyricacid,CCCC(=O)O,107-92-6,butanoic acid,MeCN,CC#N,22.7,MeCN_Acids_COSMO-RS_2008_Table.pdf
1177,102-82-9,CCCC[NH+](CCCC)CCCC,-,tributylazanium,H2O,O,10.89,Bases_pKa_values_MeCN_DMSO_THF_Water.pdf
1248,102-82-9,CCCC[NH+](CCCC)CCCC,-,tributylazanium,DMSO,CS(=O)C,8.4,Bases_pKa_values_MeCN_DMSO_THF_Water.pdf
1309,102-82-9,CCCC[NH+](CCCC)CCCC,-,tributylazanium,MeCN,CC#N,18.09,Bases_pKa_values_MeCN_DMSO_THF_Water.pdf
1378,102-82-9,CCCC[NH+](CCCC)CCCC,-,tributylazanium,THF,C1CCOC1,12.7,Bases_pKa_values_MeCN_DMSO_THF_Water.pdf
1170,111-92-2,CCCC[NH2+]CCCC,-,dibutylazanium,H2O,O,11.25,Bases_pKa_values_MeCN_DMSO_THF_Water.pdf
1242,111-92-2,CCCC[NH2+]CCCC,-,dibutylazanium,DMSO,CS(=O)C,10,Bases_pKa_values_MeCN_DMSO_THF_Water.pdf
1303,111-92-2,CCCC[NH2+]CCCC,-,dibutylazanium,MeCN,CC#N,18.31,Bases_pKa_values_MeCN_DMSO_THF_Water.pdf
1372,111-92-2,CCCC[NH2+]CCCC,-,dibutylazanium,THF,C1CCOC1,12.6,Bases_pKa_values_MeCN_DMSO_THF_Water.pdf
1162,109-73-9,CCCC[NH3+],-,butylazanium,H2O,O,10.59,Bases_pKa_values_MeCN_DMSO_THF_Water.pdf
1234,109-73-9,CCCC[NH3+],-,butylazanium,DMSO,CS(=O)C,11.1,Bases_pKa_values_MeCN_DMSO_THF_Water.pdf
1295,109-73-9,CCCC[NH3+],-,butylazanium,MeCN,CC#N,18.26,Bases_pKa_values_MeCN_DMSO_THF_Water.pdf
1366,109-73-9,CCCC[NH3+],-,butylazanium,THF,C1CCOC1,13.4,Bases_pKa_values_MeCN_DMSO_THF_Water.pdf
1228,165535-45-5,CCNP(=N[P+](N(C)C)(N(C)C)N(C)C)(N(C)C)N(C)C,-,[[bis(dimethylamino)-(ethylamino)-_5-phosphanylidene]amino]-tris(dimethylamino)phosphanium,H2O,O,20,Bases_pKa_values_MeCN_DMSO_THF_Water.pdf
1289,165535-45-5,CCNP(=N[P+](N(C)C)(N(C)C)N(C)C)(N(C)C)N(C)C,-,[[bis(dimethylamino)-(ethylamino)-_5-phosphanylidene]amino]-tris(dimethylamino)phosphanium,DMSO,CS(=O)C,21.15,Bases_pKa_values_MeCN_DMSO_THF_Water.pdf
1361,165535-45-5,CCNP(=N[P+](N(C)C)(N(C)C)N(C)C)(N(C)C)N(C)C,-,[[bis(dimethylamino)-(ethylamino)-_5-phosphanylidene]amino]-tris(dimethylamino)phosphanium,MeCN,CC#N,32.94,Bases_pKa_values_MeCN_DMSO_THF_Water.pdf
1420,165535-45-5,CCNP(=N[P+](N(C)C)(N(C)C)N(C)C)(N(C)C)N(C)C,-,[[bis(dimethylamino)-(ethylamino)-_5-phosphanylidene]amino]-tris(dimethylamino)phosphanium,THF,C1CCOC1,25.3,Bases_pKa_values_MeCN_DMSO_THF_Water.pdf
1609,(CF3)5C6CH(CN)COOEt,CCOC(=O)C(C#N)C1=C(C(=C(C(=C1C(F)(F)F)C(F)(F)F)C(F)(F)F)C(F)(F)F)C(F)(F)F,2226486-80-0,,DCE,C(CCl)Cl,47.8,leito_acids
1,32251-53-9,CCOC(=O)C(C#N)C1=C(C(=C(C(=C1F)F)C(F)(F)F)F)F,32251-53-9,"ethyl 2-cyano-2-[2,3,5,6-tetrafluoro-4-(trifluoromethyl)phenyl]acetate",MeCN,CC#N,16.08,MeCN_Acids_COSMO-RS_2008_Table.pdf
476,(4-CF3-C6F4)CH(CN)COOEt,CCOC(=O)C(C#N)C1=C(C(=C(C(=C1F)F)C(F)(F)F)F)F,32251-53-9,"ethyl 2-cyano-2-[2,3,5,6-tetrafluoro-4-(trifluoromethyl)phenyl]acetate",MeCN,CC#N,16.08,a_unified_view_to_bronsted_acidity_scales.pdf
513,(4-CF3-C6F4)CH(CN)COOEt,CCOC(=O)C(C#N)C1=C(C(=C(C(=C1F)F)C(F)(F)F)F)F,32251-53-9,"ethyl 2-cyano-2-[2,3,5,6-tetrafluoro-4-(trifluoromethyl)phenyl]acetate",DMSO,CS(=O)C,3,a_unified_view_to_bronsted_acidity_scales.pdf
864,32251-53-9,CCOC(=O)C(C#N)C1=C(C(=C(C(=C1F)F)C(F)(F)F)F)F,32251-53-9,"ethyl 2-cyano-2-[2,3,5,6-tetrafluoro-4-(trifluoromethyl)phenyl]acetate",MeCN,CC#N,16.07,Ejoc202001649-sup-00001-misc_information.pdf
1081,32251-53-9,CCOC(=O)C(C#N)C1=C(C(=C(C(=C1F)F)C(F)(F)F)F)F,32251-53-9,"ethyl 2-cyano-2-[2,3,5,6-tetrafluoro-4-(trifluoromethyl)phenyl]acetate",DMSO,CS(=O)C,3,Ejoc202001649-sup-00001-misc_information.pdf
1107,32251-53-9,CCOC(=O)C(C#N)C1=C(C(=C(C(=C1F)F)C(F)(F)F)F)F,32251-53-9,"ethyl 2-cyano-2-[2,3,5,6-tetrafluoro-4-(trifluoromethyl)phenyl]acetate",DCE,C(CCl)Cl,50.6,Ejoc202001649-sup-00001-misc_information.pdf
1476,(4-CF3-C6F4)CH(CN)COOEt,CCOC(=O)C(C#N)C1=C(C(=C(C(=C1F)F)C(F)(F)F)F)F,32251-53-9,"ethyl 2-cyano-2-[2,3,5,6-tetrafluoro-4-(trifluoromethyl)phenyl]acetate",MeCN,CC#N,16.08,leito_acids
1580,(4-CF3-C6F4)CH(CN)COOEt,CCOC(=O)C(C#N)C1=C(C(=C(C(=C1F)F)C(F)(F)F)F)F,32251-53-9,"ethyl 2-cyano-2-[2,3,5,6-tetrafluoro-4-(trifluoromethyl)phenyl]acetate",DCE,C(CCl)Cl,50.6,leito_acids
474,(4-Cl-C6F4)CH(CN)COOEt,CCOC(=O)C(C#N)C1=C(C(=C(C(=C1F)F)Cl)F)F,55810-56-5,"ethyl 2-(4-chloro-2,3,5,6-tetrafluorophenyl)-2-cyanoacetate",MeCN,CC#N,17.39,a_unified_view_to_bronsted_acidity_scales.pdf
512,(4-Cl-C6F4)CH(CN)COOEt,CCOC(=O)C(C#N)C1=C(C(=C(C(=C1F)F)Cl)F)F,55810-56-5,"ethyl 2-(4-chloro-2,3,5,6-tetrafluorophenyl)-2-cyanoacetate",DMSO,CS(=O)C,4.5,a_unified_view_to_bronsted_acidity_scales.pdf
1471,(4-Cl-C6F4)CH(CN)COOEt,CCOC(=O)C(C#N)C1=C(C(=C(C(=C1F)F)Cl)F)F,55810-56-5,"ethyl 2-(4-chloro-2,3,5,6-tetrafluorophenyl)-2-cyanoacetate",MeCN,CC#N,17.39,leito_acids
1578,(4-Cl-C6F4)CH(CN)COOEt,CCOC(=O)C(C#N)C1=C(C(=C(C(=C1F)F)Cl)F)F,55810-56-5,"ethyl 2-(4-chloro-2,3,5,6-tetrafluorophenyl)-2-cyanoacetate",DCE,C(CCl)Cl,52.2,leito_acids
0,2340-87-6,CCOC(=O)C(C#N)C1=C(C(=C(C(=C1F)F)F)F)F,2340-87-6,"ethyl 2-cyano-2-(2,3,4,5,6-pentafluorophenyl)acetate",MeCN,CC#N,17.75,MeCN_Acids_COSMO-RS_2008_Table.pdf
473,(C6F5)CH(CN)COOEt,CCOC(=O)C(C#N)C1=C(C(=C(C(=C1F)F)F)F)F,2340-87-6,"ethyl 2-cyano-2-(2,3,4,5,6-pentafluorophenyl)acetate",MeCN,CC#N,17.75,a_unified_view_to_bronsted_acidity_scales.pdf
511,(C6F5)CH(CN)COOEt,CCOC(=O)C(C#N)C1=C(C(=C(C(=C1F)F)F)F)F,2340-87-6,"ethyl 2-cyano-2-(2,3,4,5,6-pentafluorophenyl)acetate",DMSO,CS(=O)C,4.7,a_unified_view_to_bronsted_acidity_scales.pdf
851,2340-87-6,CCOC(=O)C(C#N)C1=C(C(=C(C(=C1F)F)F)F)F,2340-87-6,"ethyl 2-cyano-2-(2,3,4,5,6-pentafluorophenyl)acetate",MeCN,CC#N,17.73,Ejoc202001649-sup-00001-misc_information.pdf
1006,2340-87-6,CCOC(=O)C(C#N)C1=C(C(=C(C(=C1F)F)F)F)F,2340-87-6,"ethyl 2-cyano-2-(2,3,4,5,6-pentafluorophenyl)acetate",H2O,O,5.89,Ejoc202001649-sup-00001-misc_information.pdf
1073,2340-87-6,CCOC(=O)C(C#N)C1=C(C(=C(C(=C1F)F)F)F)F,2340-87-6,"ethyl 2-cyano-2-(2,3,4,5,6-pentafluorophenyl)acetate",DMSO,CS(=O)C,5.1,Ejoc202001649-sup-00001-misc_information.pdf
1103,2340-87-6,CCOC(=O)C(C#N)C1=C(C(=C(C(=C1F)F)F)F)F,2340-87-6,"ethyl 2-cyano-2-(2,3,4,5,6-pentafluorophenyl)acetate",DCE,C(CCl)Cl,52.5,Ejoc202001649-sup-00001-misc_information.pdf
1468,(C6F5)CH(CN)COOEt,CCOC(=O)C(C#N)C1=C(C(=C(C(=C1F)F)F)F)F,2340-87-6,"ethyl 2-cyano-2-(2,3,4,5,6-pentafluorophenyl)acetate",MeCN,CC#N,17.75,leito_acids
1576,(C6F5)CH(CN)COOEt,CCOC(=O)C(C#N)C1=C(C(=C(C(=C1F)F)F)F)F,2340-87-6,"ethyl 2-cyano-2-(2,3,4,5,6-pentafluorophenyl)acetate",DCE,C(CCl)Cl,52.5,leito_acids
1465,(4-H-C6F4)CH(CN)COOEt,CCOC(=O)C(C#N)C1=C(C(=CC(=C1F)F)F)F,55852-22-7,"ethyl 2-cyano-2-(2,3,5,6-tetrafluorophenyl)acetate",MeCN,CC#N,18.08,leito_acids
478,(4-NC5F4)CH(CN)COOEt,CCOC(=O)C(C#N)C1=C(C(=NC(=C1F)F)F)F,55810-61-2,"ethyl 2-cyano-2-(2,3,5,6-tetrafluoropyridin-4-yl)acetate",MeCN,CC#N,14.9,a_unified_view_to_bronsted_acidity_scales.pdf
515,(4-NC5F4)CH(CN)COOEt,CCOC(=O)C(C#N)C1=C(C(=NC(=C1F)F)F)F,55810-61-2,"ethyl 2-cyano-2-(2,3,5,6-tetrafluoropyridin-4-yl)acetate",DMSO,CS(=O)C,3.2,a_unified_view_to_bronsted_acidity_scales.pdf
1479,(4-NC5F4)CH(CN)COOEt,CCOC(=O)C(C#N)C1=C(C(=NC(=C1F)F)F)F,55810-61-2,"ethyl 2-cyano-2-(2,3,5,6-tetrafluoropyridin-4-yl)acetate",MeCN,CC#N,14.9,leito_acids
1581,(4-NC5F4)CH(CN)COOEt,CCOC(=O)C(C#N)C1=C(C(=NC(=C1F)F)F)F,55810-61-2,"ethyl 2-cyano-2-(2,3,5,6-tetrafluoropyridin-4-yl)acetate",DCE,C(CCl)Cl,49.4,leito_acids
475,(2-C10F7)CH(CN)COOEt,CCOC(=O)C(C#N)C1=C(C2=C(C(=C1F)F)C(=C(C(=C2F)F)F)F)F,62325-34-2,"ethyl 2-cyano-2-(1,3,4,5,6,7,8-heptafluoronaphthalen-2-yl)acetate",MeCN,CC#N,17.5,a_unified_view_to_bronsted_acidity_scales.pdf
1470,(2-C10F7)CH(CN)COOEt,CCOC(=O)C(C#N)C1=C(C2=C(C(=C1F)F)C(=C(C(=C2F)F)F)F)F,62325-34-2,"ethyl 2-cyano-2-(1,3,4,5,6,7,8-heptafluoronaphthalen-2-yl)acetate",MeCN,CC#N,17.5,leito_acids