,Unnamed: 0,checking?,solute,solute SMILES,computed CAS,computed IUPAC,solvent,solvent SMILES,pka,ref
483,483,,Bromothymol blue,CC1=C(C=C(C(=C1Br)O)C(C)C)C2(C3=CC=CC=C3S(=O)(=O)O2)C4=C(C(=C(C(=C4)C(C)C)O)Br)C,76-59-5,"2-bromo-4-[3-(3-bromo-4-hydroxy-2-methyl-5-propan-2-ylphenyl)-1,1-dioxo-2,1Œª6-benzoxathiol-3-yl]-3-methyl-6-propan-2-ylphenol",MeCN,CC#N,11.7,a_unified_view_to_bronsted_acidity_scales.pdf
484,484,,Bromocresol green,CC1=C(C(=C(C=C1C2(C3=CC=CC=C3S(=O)(=O)O2)C4=CC(=C(C(=C4C)Br)O)Br)Br)O)Br,76-60-8,"2,6-dibromo-4-[3-(3,5-dibromo-4-hydroxy-2-methylphenyl)-1,1-dioxo-2,1Œª6-benzoxathiol-3-yl]-3-methylphenol",MeCN,CC#N,11.0,a_unified_view_to_bronsted_acidity_scales.pdf
877,877,,934201-93-1,C1CCC2=C3C4=C5CCCCC5=CC(=C4OP(=O)(OC3=C(C=C2C1)C6=CC7=CC=CC=C7C8=CC=CC=C86)O)C9=CC1=CC=CC=C1C1=CC=CC=C19,-,"13-hydroxy-10,16-di(phenanthren-9-yl)-12,14-dioxa-13λ5-phosphapentacyclo[13.8.0.02,11.03,8.018,23]tricosa-1(23),2,8,10,15,17-hexaene 13-oxide",MeCN,CC#N,13.97,Ejoc202001649-sup-00001-misc_information.pdf
879,879,,791616-63-2,CC(C)C1=CC(=C(C(=C1)C(C)C)C2=CC3=CC=CC=C3C4=C2OP(=O)(OC5=C4C6=CC=CC=C6C=C5C7=C(C=C(C=C7C(C)C)C(C)C)C(C)C)O)C(C)C,791616-63-2,"13-hydroxy-10,16-bis[2,4,6-tri(propan-2-yl)phenyl]-12,14-dioxa-13λ5-phosphapentacyclo[13.8.0.02,11.03,8.018,23]tricosa-1(15),2(11),3,5,7,9,16,18,20,22-decaene 13-oxide",MeCN,CC#N,13.63,Ejoc202001649-sup-00001-misc_information.pdf
883,883,,864943-22-6,C1=CC=C2C(=C1)C=C(C3=CC=CC=C23)C4=CC5=CC=CC=C5C6=C4OP(=O)(OC7=C6C8=CC=CC=C8C=C7C9=CC1=CC=CC=C1C1=CC=CC=C19)O,864943-22-6,"13-hydroxy-10,16-di(phenanthren-9-yl)-12,14-dioxa-13λ5-phosphapentacyclo[13.8.0.02,11.03,8.018,23]tricosa-1(15),2(11),3,5,7,9,16,18,20,22-decaene 13-oxide",MeCN,CC#N,13.32,Ejoc202001649-sup-00001-misc_information.pdf
886,886,,695162-86-8,C1=CC=C(C=C1)C2=CC3=CC=CC=C3C4=C2OP(=O)(OC5=C4C6=CC=CC=C6C=C5C7=CC=CC=C7)O,1244725-08-3,"13-hydroxy-10,16-diphenyl-12,14-dioxa-13λ5-phosphapentacyclo[13.8.0.02,11.03,8.018,23]tricosa-1(15),2(11),3,5,7,9,16,18,20,22-decaene 13-oxide",MeCN,CC#N,12.73,Ejoc202001649-sup-00001-misc_information.pdf
941,941,,1071853-99-0,COC1=CC=C(C=C1)C2=CC3CCCCC3C4=C2OP(=O)(OC5=C(C=C6CCCCC6=C45)C7=CC=C(C=C7)OC)NS(=O)(=O)C(F)(F)F,-,"N-[10,16-bis(4-methoxyphenyl)-13-oxo-12,14-dioxa-13λ5-phosphapentacyclo[13.8.0.02,11.03,8.018,23]tricosa-1(15),2,8,10,16-pentaen-13-yl]-1,1,1-trifluoromethanesulfonamide",MeCN,CC#N,6.83,Ejoc202001649-sup-00001-misc_information.pdf
943,943,,1261302-62-8,C1CCC2=C3C4=C5CCCCC5=CC(=C4OP(=O)(OC3=C(C=C2C1)C6=CC=CC=C6)NS(=O)(=O)C(F)(F)F)C7=CC=CC=C7,-,"1,1,1-trifluoro-N-(13-oxo-10,16-diphenyl-12,14-dioxa-13λ5-phosphapentacyclo[13.8.0.02,11.03,8.018,23]tricosa-1(23),2,8,10,15,17-hexaen-13-yl)methanesulfonamide",MeCN,CC#N,6.68,Ejoc202001649-sup-00001-misc_information.pdf
949,949,,1010799-98-0,C1=CC=C(C=C1)C2=CC3=CC=CC=C3C4=C2OP(=O)(OC5=C4C6=CC=CC=C6C=C5C7=CC=CC=C7)NS(=O)(=O)C(F)(F)F,-,"1,1,1-trifluoro-N-(13-oxo-10,16-diphenyl-12,14-dioxa-13λ5-phosphapentacyclo[13.8.0.02,11.03,8.018,23]tricosa-1(15),2(11),3,5,7,9,16,18,20,22-decaen-13-yl)methanesulfonamide",MeCN,CC#N,6.33,Ejoc202001649-sup-00001-misc_information.pdf
1088,1088,,791616-63-2,CC(C)C1=CC(=C(C(=C1)C(C)C)C2=CC3=CC=CC=C3C4=C2OP(=O)(OC5=C4C6=CC=CC=C6C=C5C7=C(C=C(C=C7C(C)C)C(C)C)C(C)C)O)C(C)C,791616-63-2,"13-hydroxy-10,16-bis[2,4,6-tri(propan-2-yl)phenyl]-12,14-dioxa-13λ5-phosphapentacyclo[13.8.0.02,11.03,8.018,23]tricosa-1(15),2(11),3,5,7,9,16,18,20,22-decaene 13-oxide",DMSO,CS(=O)C,4.22,Ejoc202001649-sup-00001-misc_information.pdf
1090,1090,,695162-86-8,C1=CC=C(C=C1)C2=CC3=CC=CC=C3C4=C2OP(=O)(OC5=C4C6=CC=CC=C6C=C5C7=CC=CC=C7)O,1244725-08-3,"13-hydroxy-10,16-diphenyl-12,14-dioxa-13λ5-phosphapentacyclo[13.8.0.02,11.03,8.018,23]tricosa-1(15),2(11),3,5,7,9,16,18,20,22-decaene 13-oxide",DMSO,CS(=O)C,3.86,Ejoc202001649-sup-00001-misc_information.pdf