,Unnamed: 0,name,solute,solute SMILES,solvent,solvent SMILES,pka,ref,computed CAS,computed IUPAC
367,367,name,2-nitroimidazole,C1=CC=C(C=C1)OCCCN2C=CN=C2[N+](=O)[O-],MeCN,CC#N,5.54,pKa_values_of_nitrogen_heterocycles.pdf,1-(3-PHENOXYPROPYL)-2-NO2 -IMIDAZOLE,2-nitro-1-(3-phenoxypropyl)imidazole
368,368,name,"2,5-dichloroaniline",C1=CC(=C(C=C1Cl)N)Cl,MeCN,CC#N,5.06,pKa_values_of_nitrogen_heterocycles.pdf,95-82-9,"2,5-dichloroaniline"
369,369,name,5-nitroindazole ,C1=CC2=C(C=C1[N+](=O)[O-])C=NN2,MeCN,CC#N,4.91,pKa_values_of_nitrogen_heterocycles.pdf,5401-94-5,5-nitro-1H-indazole
370,370,name,6-nitroindazole ,C1=CC2=C(C=C1[N+](=O)[O-])NN=C2,MeCN,CC#N,4.88,pKa_values_of_nitrogen_heterocycles.pdf,7597-18-4,6-nitro-1H-indazole
371,371,name,2-nitroaniline,C1=CC=C(C(=C1)N)[N+](=O)[O-],MeCN,CC#N,4.8,pKa_values_of_nitrogen_heterocycles.pdf,88-74-4,2-nitroaniline
372,372,name,4-chloro-2-nitroAniline,C1=CC(=C(C=C1Cl)[N+](=O)[O-])N,MeCN,CC#N,3.8,pKa_values_of_nitrogen_heterocycles.pdf,89-63-4,4-chloro-2-nitroaniline
373,373,name,2-chloro-4-nitroaniline,C1=CC(=C(C=C1[N+](=O)[O-])Cl)N,MeCN,CC#N,3.66,pKa_values_of_nitrogen_heterocycles.pdf,121-87-9,2-chloro-4-nitroaniline
374,374,name,Uracil,C1=CNC(=O)NC1=O,MeCN,CC#N,3.38,pKa_values_of_nitrogen_heterocycles.pdf,-,-
375,375,name,Thymine,CC1=CNC(=O)NC1=O,MeCN,CC#N,2.7,pKa_values_of_nitrogen_heterocycles.pdf,-,-
376,376,name,"2,3,4,5,6-pentachloroAniline",C1=CC(=C(C=C1[N+](=O)[O-])Cl)N,MeCN,CC#N,2.35,pKa_values_of_nitrogen_heterocycles.pdf,121-87-9,2-chloro-4-nitroaniline
377,377,name,"Quino[7,8-h]quinoline",C1=CC2=C(C3=C(C=C2)C=CC4=C3N=CC=C4)N=C1,H2O,O,12.0,pKa_values_of_nitrogen_heterocycles.pdf,-,"quinolino[7,8-h]quinoline"
378,378,name,Imidazole,C1=CN=CN1,H2O,O,6.95,pKa_values_of_nitrogen_heterocycles.pdf,288-32-4,1H-imidazole
379,379,name,Phenanthroline,C1=CC2=C(C3=C(C=CC=N3)C=C2)N=C1,H2O,O,5.12,pKa_values_of_nitrogen_heterocycles.pdf,66-71-7,"1,10-phenanthroline"
380,380,name,Benzimidazole,C1=CC=C2C(=C1)NC=N2,H2O,O,5.56,pKa_values_of_nitrogen_heterocycles.pdf,51-17-2,1H-benzimidazole
381,381,name,Isoquinoline,C1=CC=C2C=NC=CC2=C1,H2O,O,5.46,pKa_values_of_nitrogen_heterocycles.pdf,119-65-3,isoquinoline
382,382,name,Acridine,C1=CC=C2C(=C1)C=C3C=CC=CC3=N2,H2O,O,5.62,pKa_values_of_nitrogen_heterocycles.pdf,260-94-6,acridine
383,383,name,Pyridine,C1=CC=NC=C1,H2O,O,5.23,pKa_values_of_nitrogen_heterocycles.pdf,110-86-1,pyridine
384,384,name,Thiabendazole,C1=CC=C2C(=C1)NC(=N2)C3=CSC=N3,H2O,O,4.64,pKa_values_of_nitrogen_heterocycles.pdf,148-79-8,"4-(1H-benzimidazol-2-yl)-1,3-thiazole"
385,385,name,"2,2'-Bipyridine",C1=CC=NC(=C1)C2=CC=CC=N2,H2O,O,4.54,pKa_values_of_nitrogen_heterocycles.pdf,366-18-7,2-pyridin-2-ylpyridine
386,386,name,Carbendazim,COC(=O)NC1=NC2=CC=CC=C2N1,H2O,O,4.53,pKa_values_of_nitrogen_heterocycles.pdf,10605-21-7,methyl N-(1H-benzimidazol-2-yl)carbamate
387,387,name,Quinoline,C1=CC=C2C(=C1)C=CC=N2,H2O,O,4.93,pKa_values_of_nitrogen_heterocycles.pdf,91-22-5,quinoline
388,388,name,"5,6-Benzoquinoline",C1=CC=C2C(=C1)C=CC3=C2C=CC=N3,H2O,O,5.15,pKa_values_of_nitrogen_heterocycles.pdf,85-02-9,benzo[f]quinoline
389,389,name,Phthalazine,C1=CC=C2C=NN=CC2=C1,H2O,O,3.47,pKa_values_of_nitrogen_heterocycles.pdf,253-52-1,phthalazine
390,390,name,"2,2'-Biquinoline",C1=CC=C2C(=C1)C(=CC(=N2)C3=NC4=CC=CC=C4C(=C3)C(=O)O)C(=O)O,H2O,O,3.66,pKa_values_of_nitrogen_heterocycles.pdf,1245-13-2,2-(4-carboxyquinolin-2-yl)quinoline-4-carboxylic acid
391,391,name,"7,8-Benzoquinoline",C1=CC=C2C(=C1)C=CC3=C2N=CC=C3,H2O,O,4.25,pKa_values_of_nitrogen_heterocycles.pdf,230-27-3,benzo[h]quinoline
392,392,name,Cinnoline,C1=CC=C2C(=C1)C=CN=N2,H2O,O,2.29,pKa_values_of_nitrogen_heterocycles.pdf,253-66-7,cinnoline
393,393,name,Pyridazine,C1=CC=NN=C1,H2O,O,2.33,pKa_values_of_nitrogen_heterocycles.pdf,289-80-5,pyridazine
394,394,name,Quinazoline,C1=CC=C2C(=C1)C=NC=N2,H2O,O,1.95,pKa_values_of_nitrogen_heterocycles.pdf,253-82-7,quinazoline
395,395,name,Pyrazole,C1=CNN=C1,H2O,O,2.48,pKa_values_of_nitrogen_heterocycles.pdf,288-13-1,1H-pyrazole
396,396,name,Pyrimidine,C1=CN=CN=C1,H2O,O,1.3,pKa_values_of_nitrogen_heterocycles.pdf,289-95-2,pyrimidine
397,397,name,"1,2,3-Triazole",C1=NNN=C1,H2O,O,1.17,pKa_values_of_nitrogen_heterocycles.pdf,288-35-7,2H-triazole
398,398,name,Pyrazine,C1=CN=CC=N1,H2O,O,0.6,pKa_values_of_nitrogen_heterocycles.pdf,290-37-9,pyrazine
399,399,name,Indazole,C1=CC=C2C(=C1)C=NN2,H2O,O,1.25,pKa_values_of_nitrogen_heterocycles.pdf,271-44-3,1H-indazole
400,400,name,Caffeine,CN1C=NC2=C1C(=O)N(C(=O)N2C)C,H2O,O,0.6,pKa_values_of_nitrogen_heterocycles.pdf,58-08-2,"1,3,7-trimethylpurine-2,6-dione"
401,401,name,Quinoxaline,C1=CC=C2C(=C1)N=CC=N2,H2O,O,0.56,pKa_values_of_nitrogen_heterocycles.pdf,91-19-0,quinoxaline
402,402,name,Benzotriazole,C1=CC2=NNN=C2C=C1,H2O,O,0.42,pKa_values_of_nitrogen_heterocycles.pdf,95-14-7,2H-benzotriazole
403,403,name,4-nitroimidazole,C1=C(NC=N1)[N+](=O)[O-],H2O,O,-0.16,pKa_values_of_nitrogen_heterocycles.pdf,3034-38-6,5-nitro-1H-imidazole
404,404,name,2-nitroimidazole,C1=CC=C(C=C1)OCCCN2C=CN=C2[N+](=O)[O-],H2O,O,-0.81,pKa_values_of_nitrogen_heterocycles.pdf,1-(3-PHENOXYPROPYL)-2-NO2 -IMIDAZOLE,2-nitro-1-(3-phenoxypropyl)imidazole
405,405,name,5-nitroindazole ,C1=CC2=C(C=C1[N+](=O)[O-])C=NN2,H2O,O,-0.96,pKa_values_of_nitrogen_heterocycles.pdf,5401-94-5,5-nitro-1H-indazole
406,406,name,6-nitroindazole ,C1=CC2=C(C=C1[N+](=O)[O-])NN=C2,H2O,O,-0.97,pKa_values_of_nitrogen_heterocycles.pdf,7597-18-4,6-nitro-1H-indazole
407,407,name,Uracil,C1=CNC(=O)NC1=O,H2O,O,0.5,pKa_values_of_nitrogen_heterocycles.pdf,66-22-8,"1H-pyrimidine-2,4-dione"
408,408,name,Thymine,CC1=CNC(=O)NC1=O,H2O,O,0.0,pKa_values_of_nitrogen_heterocycles.pdf,65-71-4,"5-methyl-1H-pyrimidine-2,4-dione"
409,409,name,Picric acid,C1=C(C=C(C(=C1[N+](=O)[O-])O)[N+](=O)[O-])[N+](=O)[O-],MeCN,CC#N,11.0,DCE_2011_pKa_Table_MeCN.pdf,-,-
410,410,name,4-F-C6H4C(=O)NHTf,FC1=CC=C(C=C1)C(=O)N[S](=O)(=O)C(F)(F)F,MeCN,CC#N,10.65,DCE_2011_pKa_Table_MeCN.pdf,-,4-fluoro-N-(trifluoromethylsulfonyl)benzamide
411,411,name,"2,3,4,5,6-pentakis(trifluoromethyl)Phenol",C1(=C(C(=C(C(=C1C(F)(F)F)C(F)(F)F)O)C(F)(F)F)C(F)(F)F)C(F)(F)F,MeCN,CC#N,10.46,DCE_2011_pKa_Table_MeCN.pdf,723294-91-5,"2,3,4,5,6-pentakis(trifluoromethyl)phenol"
412,412,name,"2,3,4,6-(CF3)4-C6HCH(CN)2",FC(F)(F)C1=C(C(C#N)C#N)C(=C(C(=C1)C(F)(F)F)C(F)(F)F)C(F)(F)F,MeCN,CC#N,10.45,DCE_2011_pKa_Table_MeCN.pdf,-,-
413,413,name,4-Cl-C6H4C(=O)NHTf,FC(F)(F)[S](=O)(=O)NC(=O)C1=CC=C(Cl)C=C1,MeCN,CC#N,10.36,DCE_2011_pKa_Table_MeCN.pdf,-,4-chloro-N-(trifluoromethylsulfonyl)benzamide
414,414,name,HCl,Cl,MeCN,CC#N,10.3,DCE_2011_pKa_Table_MeCN.pdf,16887-00-6,chloride
415,415,name,(4-Cl-C6H4SO2)2NH,no matches,MeCN,CC#N,10.2,DCE_2011_pKa_Table_MeCN.pdf,-,-
416,416,name,4-CF3-C6F4CH(CN)2,FC1=C(C(C#N)C#N)C(=C(F)C(=C1F)C(F)(F)F)F,MeCN,CC#N,10.19,DCE_2011_pKa_Table_MeCN.pdf,55852-24-9,"2-[2,3,5,6-tetrafluoro-4-(trifluoromethyl)phenyl]propanedinitrile"
417,417,name,"2,3,4,5,6-pentakis(trifluoromethyl)benzenethiol",C1(=C(C(=C(C(=C1C(F)(F)F)C(F)(F)F)S)C(F)(F)F)C(F)(F)F)C(F)(F)F,MeCN,CC#N,10.1,DCE_2011_pKa_Table_MeCN.pdf,SCHEMBL8512489,"2,3,4,5,6-pentakis(trifluoromethyl)benzenethiol"
418,418,name,4-NO2-C6H4SO2NHTos,no matches,MeCN,CC#N,10.04,DCE_2011_pKa_Table_MeCN.pdf,-,-
419,419,name,4-Cl-3-NO2C6H3SO2NHTos,no matches,MeCN,CC#N,9.71,DCE_2011_pKa_Table_MeCN.pdf,-,-
420,420,name,4-NO2-C6H4C(=O)NHTf,[O-][N+](=O)C1=CC=C(C=C1)C(=O)N[S](=O)(=O)C(F)(F)F,MeCN,CC#N,9.49,DCE_2011_pKa_Table_MeCN.pdf,39062-98-1,4-nitro-N-(trifluoromethylsulfonyl)benzamide
421,421,name,4-NO2-C6H4SO2NH-SO2C6H4-4-Cl,no matches,MeCN,CC#N,9.17,DCE_2011_pKa_Table_MeCN.pdf,-,-
422,422,name,C6(CF3)5CH(CN)2,FC(F)(F)C1=C(C(C#N)C#N)C(=C(C(=C1C(F)(F)F)C(F)(F)F)C(F)(F)F)C(F)(F)F,MeCN,CC#N,8.86,DCE_2011_pKa_Table_MeCN.pdf,2-[Pentakis(trifluoromethyl)phenyl]malononitrile,"2-[2,3,4,5,6-pentakis(trifluoromethyl)phenyl]propanedinitrile"
423,423,name,4-Cl-3-NO2-C6H3SO2NH-SO2C6H4-4-Cl,no matches,MeCN,CC#N,8.8,DCE_2011_pKa_Table_MeCN.pdf,-,-
424,424,name,4-Methylbenzenesulfonic acid,CC1=CC=C(C=C1)S(=O)(=O)O,MeCN,CC#N,8.5,DCE_2011_pKa_Table_MeCN.pdf,104-15-4,4-methylbenzenesulfonic acid
425,425,name,(4-NO2-C6H4SO2)2NH,no matches,MeCN,CC#N,8.19,DCE_2011_pKa_Table_MeCN.pdf,-,-
426,426,name,"2,4,6-(SO2OCH2CF2CF2H)3-Phenol",OC1=C(C=C(C=C1[S](=O)(=O)OCC(F)(F)C(F)F)[S](=O)(=O)OCC(F)(F)C(F)F)[S](=O)(=O)OCC(F)(F)C(F)F,MeCN,CC#N,8.17,DCE_2011_pKa_Table_MeCN.pdf,-,-
427,427,name,"2,4,6-(SO2OCH2CF3)3-Phenol",OC1=C(C=C(C=C1[S](=O)(=O)OCC(F)(F)F)[S](=O)(=O)OCC(F)(F)F)[S](=O)(=O)OCC(F)(F)F,MeCN,CC#N,7.97,DCE_2011_pKa_Table_MeCN.pdf,-,-
428,428,name,1-Naphtalenesulfonic acid,C1=CC=C2C(=C1)C=CC(=C2S(=O)(=O)O)N,MeCN,CC#N,7.89,DCE_2011_pKa_Table_MeCN.pdf,81-16-3,2-aminonaphthalene-1-sulfonic acid
429,429,name,4-Cl-3-NO2-C6H3SO2NHSO2-C6H4-3-NO2,no matches,MeCN,CC#N,7.88,DCE_2011_pKa_Table_MeCN.pdf,-,-
430,430,name,C6H5CH(Tf)2,FC(F)(F)[S](=O)(=O)C(C1=CC=CC=C1)[S](=O)(=O)C(F)(F)F,MeCN,CC#N,7.85,DCE_2011_pKa_Table_MeCN.pdf,40906-82-9,bis(trifluoromethylsulfonyl)methylbenzene
431,431,name,4-Cl-3-NO2-C6H3SO2NHSO2C6H4-4-NO2,no matches,MeCN,CC#N,7.84,DCE_2011_pKa_Table_MeCN.pdf,-,-
432,432,name,C6F5SO2NHSO2C6H4-4-Cl,no matches,MeCN,CC#N,7.57,DCE_2011_pKa_Table_MeCN.pdf,-,-
433,433,name,(4-Cl-3-NO2-C6H3SO2)2NH,no matches,MeCN,CC#N,7.47,DCE_2011_pKa_Table_MeCN.pdf,-,-
434,434,name,4-chloro-benzenesulfonicacid,C1=CC(=CC=C1S(=O)(=O)O)Cl,MeCN,CC#N,7.21,DCE_2011_pKa_Table_MeCN.pdf,98-66-8,4-chlorobenzenesulfonic acid
435,435,name,C6F5SO2NHSO2C6H4-3-NO2,no matches,MeCN,CC#N,6.73,DCE_2011_pKa_Table_MeCN.pdf,-,-
436,436,name,3-nitro-benzenesulfonic acid,C1=CC(=CC(=C1)S(=O)(=O)O)[N+](=O)[O-],MeCN,CC#N,6.71,DCE_2011_pKa_Table_MeCN.pdf,98-47-5,3-nitrobenzenesulfonic acid
437,437,name,C6F5SO2NHSO2C6H4-4-NO2,no matches,MeCN,CC#N,6.6,DCE_2011_pKa_Table_MeCN.pdf,-,-
438,438,name,4-nitro-benzenesulfonic acid,C1=CC(=CC=C1[N+](=O)[O-])S(=O)(=O)O,MeCN,CC#N,6.4,DCE_2011_pKa_Table_MeCN.pdf,138-42-1,4-nitrobenzenesulfonic acid
439,439,name,3-NO2-C6H4SO2CH(CN)2,[O-][N+](=O)C1=CC(=CC=C1)[S](=O)(=O)C(C#N)C#N,MeCN,CC#N,6.22,DCE_2011_pKa_Table_MeCN.pdf,-,-
440,440,name,C6F5SO2NHSO2C6H3-3-NO2-4-Cl,,MeCN,CC#N,6.18,DCE_2011_pKa_Table_MeCN.pdf,-,-
441,441,name,4-MeO-C6H4C(=NTf)NHTf,COC1=CC=C(C=C1)C(N[S](=O)(=O)C(F)(F)F)=N[S](=O)(=O)C(F)(F)F,MeCN,CC#N,6.09,DCE_2011_pKa_Table_MeCN.pdf,-,-
442,442,name,4-NO2-C6H4SO2CH(CN)2,[O-][N+](=O)C1=CC=C(C=C1)[S](=O)(=O)C(C#N)C#N,MeCN,CC#N,6.06,DCE_2011_pKa_Table_MeCN.pdf,-,-
443,443,name,4-Me-C6H4SO2NHTf,CC1=CC=C(C=C1)[S](=O)(=O)N[S](=O)(=O)C(F)(F)F,MeCN,CC#N,5.86,DCE_2011_pKa_Table_MeCN.pdf,-,4-methyl-N-(trifluoromethylsulfonyl)benzenesulfonamide
444,444,name,4-Me-C6H4C(=NTf)NHTf,CC1=CC=C(C=C1)C(N[S](=O)(=O)C(F)(F)F)=N[S](=O)(=O)C(F)(F)F,MeCN,CC#N,5.86,DCE_2011_pKa_Table_MeCN.pdf,-,-
445,445,name,C6H5C(=NTf)NHTf,FC(F)(F)[S](=O)(=O)NC(=N[S](=O)(=O)C(F)(F)F)C1=CC=CC=C1,MeCN,CC#N,5.71,DCE_2011_pKa_Table_MeCN.pdf,-,-
446,446,name,C6H5SO2NHTf,FC(F)(F)[S](=O)(=O)N[S](=O)(=O)C1=CC=CC=C1,MeCN,CC#N,5.55,DCE_2011_pKa_Table_MeCN.pdf,-,N-(trifluoromethylsulfonyl)benzenesulfonamide
447,447,name,4-F-C6H4C(=NTf)NHTf,FC1=CC=C(C=C1)C(N[S](=O)(=O)C(F)(F)F)=N[S](=O)(=O)C(F)(F)F,MeCN,CC#N,5.33,DCE_2011_pKa_Table_MeCN.pdf,-,-
448,448,name,4-Cl-C6H4-C(=NTf)NHTf,FC(F)(F)[S](=O)(=O)NC(=N[S](=O)(=O)C(F)(F)F)C1=CC=C(Cl)C=C1,MeCN,CC#N,5.24,DCE_2011_pKa_Table_MeCN.pdf,-,-
449,449,name,HBr,Br,MeCN,CC#N,5.5,DCE_2011_pKa_Table_MeCN.pdf,24959-67-9,bromide
450,450,name,"2,4,6-(SO2F)3-Phenol",OC1=C(C=C(C=C1[S](F)(=O)=O)[S](F)(=O)=O)[S](F)(=O)=O,MeCN,CC#N,5.25,DCE_2011_pKa_Table_MeCN.pdf,"2-hydroxybenzene-1,3,5-trisulfonyl fluoride","2-hydroxybenzene-1,3,5-trisulfonyl fluoride"
451,451,name,(C6F5SO2)2NH,no matches,MeCN,CC#N,5.11,DCE_2011_pKa_Table_MeCN.pdf,-,-
452,452,name,4-Cl-C6H4SO2NHTf,FC(F)(F)[S](=O)(=O)N[S](=O)(=O)C1=CC=C(Cl)C=C1,MeCN,CC#N,5.02,DCE_2011_pKa_Table_MeCN.pdf,-,4-chloro-N-(trifluoromethylsulfonyl)benzenesulfonamide
453,453,name,4-Cl-C6H4SO(=NTf)NHTos,no matches,MeCN,CC#N,4.81,DCE_2011_pKa_Table_MeCN.pdf,-,-
454,454,name,4-NO2-C6H4C(=NTf)NHTf,[O-][N+](=O)C1=CC=C(C=C1)C(N[S](=O)(=O)C(F)(F)F)=N[S](=O)(=O)C(F)(F)F,MeCN,CC#N,4.67,DCE_2011_pKa_Table_MeCN.pdf,N-(Trifluoromethylsulfonyl)-alpha-(trifluoromethylsulfonylimino)-4-nitrobenzylamineanion,"4-nitro-N,N'-bis(trifluoromethylsulfonyl)benzenecarboximidamide"
455,455,name,"2,4,6-Tf3-Phenol",OC1=C(C=C(C=C1[S](=O)(=O)C(F)(F)F)[S](=O)(=O)C(F)(F)F)[S](=O)(=O)C(F)(F)F,MeCN,CC#N,4.48,DCE_2011_pKa_Table_MeCN.pdf,-,"2,4,6-tris(trifluoromethylsulfonyl)phenol"
456,456,name,(CN)2C=C(CN)OH,OC(C#N)=C(C#N)C#N,MeCN,CC#N,4.39,DCE_2011_pKa_Table_MeCN.pdf,-,"2-hydroxyethene-1,1,2-tricarbonitrile"
457,457,name,4-NO2-C6H4SO2NHTf,[O-][N+](=O)C1=CC=C(C=C1)[S](=O)(=O)N[S](=O)(=O)C(F)(F)F,MeCN,CC#N,4.08,DCE_2011_pKa_Table_MeCN.pdf,-,4-nitro-N-(trifluoromethylsulfonyl)benzenesulfonamide
458,458,name,4-Cl-C6H4SO(=NTf)NHSO2-C6H4-4-Cl,,MeCN,CC#N,4.03,DCE_2011_pKa_Table_MeCN.pdf,-,-
459,459,name,"2,4-(NO2)2-C6H3SO3H",no matches,MeCN,CC#N,3.99,DCE_2011_pKa_Table_MeCN.pdf,-,-
460,460,name,"2,3,5-tricyanocyclopentadiene",N#CC1C=C(C#N)C(=C1)C#N,MeCN,CC#N,3.68,DCE_2011_pKa_Table_MeCN.pdf,"1,3-Cyclopentadiene-2,3,5-tricarbonitrile","cyclopenta-2,5-diene-1,2,4-tricarbonitrile"
461,461,name,4-Cl-C6H4-SO(=NTf)NH-SO2C6H4-4-NO2,[NH-][S](=O)(=N[S](=O)(=O)C(F)(F)F)C1=CC=C(Cl)C=C1,MeCN,CC#N,3.33,DCE_2011_pKa_Table_MeCN.pdf,-,-
462,462,name,HI,I,MeCN,CC#N,2.8,DCE_2011_pKa_Table_MeCN.pdf,20461-54-5,iodide
463,463,name,9-COOMe-fluorene,no matches,MeCN,CC#N,23.53,a_unified_view_to_bronsted_acidity_scales.pdf,-,-
464,464,name,(4-Me-C6F4)2CHCN,no matches,MeCN,CC#N,22.8,a_unified_view_to_bronsted_acidity_scales.pdf,-,-
465,465,name,(4-Me-C6F4)(C6F5)CHCN,no matches,MeCN,CC#N,21.94,a_unified_view_to_bronsted_acidity_scales.pdf,-,-
466,466,name,9-CN-fluorene,no matches,MeCN,CC#N,21.36,a_unified_view_to_bronsted_acidity_scales.pdf,-,-
467,467,name,(4-H-C6F4)(C6F5)CHCN,no matches,MeCN,CC#N,21.11,a_unified_view_to_bronsted_acidity_scales.pdf,-,-
468,468,name,(4-Cl-C6F4)(C6F5)CHCN,no matches,MeCN,CC#N,20.36,a_unified_view_to_bronsted_acidity_scales.pdf,-,-
469,469,name,(2-C10F7)(C6F5)CHCN,no matches,MeCN,CC#N,20.08,a_unified_view_to_bronsted_acidity_scales.pdf,-,-
470,470,name,9-C6F5-Octafluorofluorene,FC1=C(F)C(=C(C2C3=C(C(=C(F)C(=C3F)F)F)C4=C2C(=C(F)C(=C4F)F)F)C(=C1F)F)F,MeCN,CC#N,18.88,a_unified_view_to_bronsted_acidity_scales.pdf,63264-80-2,"1,2,3,4,5,6,7,8-octafluoro-9-(2,3,4,5,6-pentafluorophenyl)-9H-fluorene"
471,471,name,(2-C10F7)2CHCN,FC1=C(F)C2=C(C(=C1F)F)C(=C(C(C#N)C3=C(F)C4=C(F)C(=C(F)C(=C4C(=C3F)F)F)F)C(=C2F)F)F,MeCN,CC#N,19.32,a_unified_view_to_bronsted_acidity_scales.pdf,-,"2,2-bis(1,3,4,5,6,7,8-heptafluoronaphthalen-2-yl)acetonitrile"
472,472,name,(4-CF3-C6F4)(C6F5)CHCN,FC1=C(F)C(=C(C(C#N)C2=C(F)C(=C(C(=C2F)F)C(F)(F)F)F)C(=C1F)F)F,MeCN,CC#N,18.14,a_unified_view_to_bronsted_acidity_scales.pdf,-,"2-(2,3,4,5,6-pentafluorophenyl)-2-[2,3,5,6-tetrafluoro-4-(trifluoromethyl)phenyl]acetonitrile"
473,473,name,(C 6F5)CH(CN)COOEt,no matches,MeCN,CC#N,17.75,a_unified_view_to_bronsted_acidity_scales.pdf,-,-
474,474,name,(4-Cl-C6F4)CH(CN)COOEt,no matches,MeCN,CC#N,17.39,a_unified_view_to_bronsted_acidity_scales.pdf,-,-
475,475,name,(2-C10F7)CH(CN)COOEt,no matches,MeCN,CC#N,17.5,a_unified_view_to_bronsted_acidity_scales.pdf,-,-
476,476,name,(4-CF3-C6F4)CH(CN)COOEt,no matches,MeCN,CC#N,16.08,a_unified_view_to_bronsted_acidity_scales.pdf,-,-
477,477,name,(4-NC5F4)(C6F5)CHCN,no matches,MeCN,CC#N,16.4,a_unified_view_to_bronsted_acidity_scales.pdf,-,-
478,478,name,(4-NC5F4)CH(CN)COOEt,no matches,MeCN,CC#N,14.9,a_unified_view_to_bronsted_acidity_scales.pdf,-,-
479,479,name,3-CF3-C6H4CH(CN)2,no matches,MeCN,CC#N,14.72,a_unified_view_to_bronsted_acidity_scales.pdf,-,-
480,480,name,(4-NC5F4)2CHCN,no matches,MeCN,CC#N,13.47,a_unified_view_to_bronsted_acidity_scales.pdf,-,-
481,481,name,4-H-C6F4CH(CN)2,no matches,MeCN,CC#N,12.98,a_unified_view_to_bronsted_acidity_scales.pdf,-,-
482,482,name,2-C10F7CH(CN)2,no matches,MeCN,CC#N,12.23,a_unified_view_to_bronsted_acidity_scales.pdf,-,-
483,483,name,Bromothymol blue,CC1=C(C=C(C(=C1Br)O)C(C)C)C2(C3=CC=CC=C3S(=O)(=O)O2)C4=C(C(=C(C(=C4)C(C)C)O)Br)C,MeCN,CC#N,11.7,a_unified_view_to_bronsted_acidity_scales.pdf,76-59-5,"2-bromo-4-[3-(3-bromo-4-hydroxy-2-methyl-5-propan-2-ylphenyl)-1,1-dioxo-2,16-benzoxathiol-3-yl]-3-methyl-6-propan-2-ylphenol"
484,484,name,Bromocresol green,CC1=C(C(=C(C=C1C2(C3=CC=CC=C3S(=O)(=O)O2)C4=CC(=C(C(=C4C)Br)O)Br)Br)O)Br,MeCN,CC#N,11.0,a_unified_view_to_bronsted_acidity_scales.pdf,76-60-8,"2,6-dibromo-4-[3-(3,5-dibromo-4-hydroxy-2-methylphenyl)-1,1-dioxo-2,16-benzoxathiol-3-yl]-3-methylphenol"
485,485,name,Picric acid,C1=C(C=C(C(=C1[N+](=O)[O-])O)[N+](=O)[O-])[N+](=O)[O-],MeCN,CC#N,11.0,a_unified_view_to_bronsted_acidity_scales.pdf,88-89-1,"2,4,6-trinitrophenol"
486,486,name,HCl,Cl,MeCN,CC#N,10.3,a_unified_view_to_bronsted_acidity_scales.pdf,16887-00-6,chloride
487,487,name,"2,3,4,6-(CF3)4-C6HCH(CN)2",FC(F)(F)C1=C(C(C#N)C#N)C(=C(C(=C1)C(F)(F)F)C(F)(F)F)C(F)(F)F,MeCN,CC#N,10.45,a_unified_view_to_bronsted_acidity_scales.pdf,-,-
488,488,name,4-CF3-C6F4CH(CN)2,no matches,MeCN,CC#N,10.19,a_unified_view_to_bronsted_acidity_scales.pdf,-,-
489,489,name,4-NO2-C H 6 4SO2NHTos m,no matches,MeCN,CC#N,10.04,a_unified_view_to_bronsted_acidity_scales.pdf,-,-
490,490,name,4-NO2-C6H4SO2NHSO2C6H4-4-Cl,no matches,MeCN,CC#N,9.17,a_unified_view_to_bronsted_acidity_scales.pdf,-,-
491,491,name,C6(CF3)5CH(CN)2,no matches,MeCN,CC#N,8.86,a_unified_view_to_bronsted_acidity_scales.pdf,-,-
492,492,name,(4-NO2-C6H4-SO2)2NH,no matches,MeCN,CC#N,8.19,a_unified_view_to_bronsted_acidity_scales.pdf,-,-
493,493,name,3-NO2-4-Cl-C6H3SO2NHSO2C6H4-4-,no matches,MeCN,CC#N,7.84,a_unified_view_to_bronsted_acidity_scales.pdf,-,-
494,494,name,N(3O-N2 O 2-4-Cl-C H SO 6 3 2)2NH,no matches,MeCN,CC#N,7.47,a_unified_view_to_bronsted_acidity_scales.pdf,-,-
495,495,name,HBr,Br,MeCN,CC#N,5.5,a_unified_view_to_bronsted_acidity_scales.pdf,24959-67-9,bromide
496,496,name,4-NO2-C6H4SO2CH(CN)2,no matches,MeCN,CC#N,6.06,a_unified_view_to_bronsted_acidity_scales.pdf,-,-
497,497,name,"2,4,6-(SO2F)3-Phenol",no SMILES,MeCN,CC#N,5.25,a_unified_view_to_bronsted_acidity_scales.pdf,654055-01-3,"2-(2,4-dihydroxyphenyl)-3,5,7-trihydroxychromen-4-one;dihydrate"
498,498,name,"2,4,6-Tf3-Phenol",OC1=C(C=C(C=C1[S](=O)(=O)C(F)(F)F)[S](=O)(=O)C(F)(F)F)[S](=O)(=O)C(F)(F)F,MeCN,CC#N,4.48,a_unified_view_to_bronsted_acidity_scales.pdf,-,"2,4,6-tris(trifluoromethylsulfonyl)phenol"
499,499,name,4-Cl-C6H4SO(=NTf)NHTos,no matches,MeCN,CC#N,4.81,a_unified_view_to_bronsted_acidity_scales.pdf,-,-
500,500,name,"2,3,5-tricyanocyclopentadiene",N#CC1C=C(C#N)C(=C1)C#N,MeCN,CC#N,3.68,a_unified_view_to_bronsted_acidity_scales.pdf,"1,3-Cyclopentadiene-2,3,5-tricarbonitrile","cyclopenta-2,5-diene-1,2,4-tricarbonitrile"
501,501,name,4-Cl-C6H4SO(=NTf)NHSO2C6H4-5-Cl,no matches,MeCN,CC#N,4.03,a_unified_view_to_bronsted_acidity_scales.pdf,-,-
502,502,name,HI,I,MeCN,CC#N,2.8,a_unified_view_to_bronsted_acidity_scales.pdf,20461-54-5,iodide
503,503,name,4-NO2-C6H4SO2NHTf,no matches,MeCN,CC#N,4.08,a_unified_view_to_bronsted_acidity_scales.pdf,-,-
504,504,name,C(CN)2=C(CN)OH,no SMILES,MeCN,CC#N,4.39,a_unified_view_to_bronsted_acidity_scales.pdf,654055-01-3,"2-(2,4-dihydroxyphenyl)-3,5,7-trihydroxychromen-4-one;dihydrate"
505,505,name,4-Cl-C6H4SO(=NTf)NHSO2C6H4-NO2,no matches,MeCN,CC#N,3.33,a_unified_view_to_bronsted_acidity_scales.pdf,-,-
506,506,name,"2,4-(NO2)2-C6H3SO2OH",no matches,MeCN,CC#N,3.99,a_unified_view_to_bronsted_acidity_scales.pdf,-,-
507,507,name,9-COOMe-fluorene,no matches,DMSO,CS(=O)C,10.35,a_unified_view_to_bronsted_acidity_scales.pdf,-,-
508,508,name,9-CN-fluorene,no matches,DMSO,CS(=O)C,8.3,a_unified_view_to_bronsted_acidity_scales.pdf,-,-
509,509,name,(4-Cl-C6F4)(C6F5)CHCN,no matches,DMSO,CS(=O)C,7.5,a_unified_view_to_bronsted_acidity_scales.pdf,-,-