,solute,solute SMILES,computed CAS,computed IUPAC,solvent,solvent SMILES,pka,ref
1239,124-40-3,C[NH2+]C,49784-85-2,dimethylazanium,DMSO,CS(=O)C,10.3,Bases_pKa_values_MeCN_DMSO_THF_Water.pdf
1300,124-40-3,C[NH2+]C,49784-85-2,dimethylazanium,MeCN,CC#N,19.03,Bases_pKa_values_MeCN_DMSO_THF_Water.pdf
1370,124-40-3,C[NH2+]C,49784-85-2,dimethylazanium,THF,C1CCOC1,13.3,Bases_pKa_values_MeCN_DMSO_THF_Water.pdf
1173,100-61-8,C[NH2+]C1=CC=CC=C1,-,methyl(phenyl)azanium,H2O,O,4.85,Bases_pKa_values_MeCN_DMSO_THF_Water.pdf
1244,100-61-8,C[NH2+]C1=CC=CC=C1,-,methyl(phenyl)azanium,DMSO,CS(=O)C,2.94,Bases_pKa_values_MeCN_DMSO_THF_Water.pdf
1305,100-61-8,C[NH2+]C1=CC=CC=C1,-,methyl(phenyl)azanium,MeCN,CC#N,10.97,Bases_pKa_values_MeCN_DMSO_THF_Water.pdf
1374,100-61-8,C[NH2+]C1=CC=CC=C1,-,methyl(phenyl)azanium,THF,C1CCOC1,4.8,Bases_pKa_values_MeCN_DMSO_THF_Water.pdf
1158,74-89-5,C[NH3+],17000-00-9,methylazanium,H2O,O,10.62,Bases_pKa_values_MeCN_DMSO_THF_Water.pdf
1230,74-89-5,C[NH3+],17000-00-9,methylazanium,DMSO,CS(=O)C,11,Bases_pKa_values_MeCN_DMSO_THF_Water.pdf
1291,74-89-5,C[NH3+],17000-00-9,methylazanium,MeCN,CC#N,18.37,Bases_pKa_values_MeCN_DMSO_THF_Water.pdf
1363,74-89-5,C[NH3+],17000-00-9,methylazanium,THF,C1CCOC1,13.5,Bases_pKa_values_MeCN_DMSO_THF_Water.pdf
43,608-71-9,C1(=C(C(=C(C(=C1Br)Br)Br)Br)Br)O,608-71-9,"2,3,4,5,6-pentabromophenol",MeCN,CC#N,17.83,MeCN_Acids_COSMO-RS_2008_Table.pdf
620,pentabromoPhenol,C1(=C(C(=C(C(=C1Br)Br)Br)Br)Br)O,608-71-9,"2,3,4,5,6-pentabromophenol",MeCN,CC#N,17.81,pKa_values_of_acids_in_acetonitrile.pdf
850,608-71-9,C1(=C(C(=C(C(=C1Br)Br)Br)Br)Br)O,608-71-9,"2,3,4,5,6-pentabromophenol",MeCN,CC#N,17.81,Ejoc202001649-sup-00001-misc_information.pdf
1005,608-71-9,C1(=C(C(=C(C(=C1Br)Br)Br)Br)Br)O,608-71-9,"2,3,4,5,6-pentabromophenol",H2O,O,4.82,Ejoc202001649-sup-00001-misc_information.pdf
1467,"2,3,4,5,6-Br5-phenol",C1(=C(C(=C(C(=C1Br)Br)Br)Br)Br)O,608-71-9,"2,3,4,5,6-pentabromophenol",MeCN,CC#N,17.83,leito_acids
125,Pentakis(trifluoromethyl)-aniline,C1(=C(C(=C(C(=C1C(F)(F)F)C(F)(F)F)N)C(F)(F)F)C(F)(F)F)C(F)(F)F,58956-76-6,"2,3,4,5,6-pentakis(trifluoromethyl)aniline",MeCN,CC#N,24.59,MeCN_Acids_COSMO-RS_2008_Table.pdf
562,pentakis(trifluoromethyl)Aniline,C1(=C(C(=C(C(=C1C(F)(F)F)C(F)(F)F)N)C(F)(F)F)C(F)(F)F)C(F)(F)F,58956-76-6,"2,3,4,5,6-pentakis(trifluoromethyl)aniline",MeCN,CC#N,24.57,pKa_values_of_acids_in_acetonitrile.pdf
792,58956-76-6,C1(=C(C(=C(C(=C1C(F)(F)F)C(F)(F)F)N)C(F)(F)F)C(F)(F)F)C(F)(F)F,58956-76-6,"2,3,4,5,6-pentakis(trifluoromethyl)aniline",MeCN,CC#N,24.57,Ejoc202001649-sup-00001-misc_information.pdf
1044,58956-76-6,C1(=C(C(=C(C(=C1C(F)(F)F)C(F)(F)F)N)C(F)(F)F)C(F)(F)F)C(F)(F)F,58956-76-6,"2,3,4,5,6-pentakis(trifluoromethyl)aniline",DMSO,CS(=O)C,12.5,Ejoc202001649-sup-00001-misc_information.pdf
1433,"2,3,4,5,6-(CF3)5-aniline",C1(=C(C(=C(C(=C1C(F)(F)F)C(F)(F)F)N)C(F)(F)F)C(F)(F)F)C(F)(F)F,58956-76-6,"2,3,4,5,6-pentakis(trifluoromethyl)aniline",MeCN,CC#N,24.59,leito_acids
215,Pentakis(trifluoromethyl)-phenol,C1(=C(C(=C(C(=C1C(F)(F)F)C(F)(F)F)O)C(F)(F)F)C(F)(F)F)C(F)(F)F,723294-91-5,"2,3,4,5,6-pentakis(trifluoromethyl)phenol",MeCN,CC#N,10.46,MeCN_Acids_COSMO-RS_2008_Table.pdf
411,"2,3,4,5,6-pentakis(trifluoromethyl)Phenol",C1(=C(C(=C(C(=C1C(F)(F)F)C(F)(F)F)O)C(F)(F)F)C(F)(F)F)C(F)(F)F,723294-91-5,"2,3,4,5,6-pentakis(trifluoromethyl)phenol",MeCN,CC#N,10.46,DCE_2011_pKa_Table_MeCN.pdf
675,pentakis(trifluoromethyl)Phenol,C1(=C(C(=C(C(=C1C(F)(F)F)C(F)(F)F)O)C(F)(F)F)C(F)(F)F)C(F)(F)F,723294-91-5,"2,3,4,5,6-pentakis(trifluoromethyl)phenol",MeCN,CC#N,10.46,pKa_values_of_acids_in_acetonitrile.pdf
904,723294-91-5,C1(=C(C(=C(C(=C1C(F)(F)F)C(F)(F)F)O)C(F)(F)F)C(F)(F)F)C(F)(F)F,723294-91-5,"2,3,4,5,6-pentakis(trifluoromethyl)phenol",MeCN,CC#N,10.46,Ejoc202001649-sup-00001-misc_information.pdf
1016,723294-91-5,C1(=C(C(=C(C(=C1C(F)(F)F)C(F)(F)F)O)C(F)(F)F)C(F)(F)F)C(F)(F)F,723294-91-5,"2,3,4,5,6-pentakis(trifluoromethyl)phenol",H2O,O,1.32,Ejoc202001649-sup-00001-misc_information.pdf
1088,723294-91-5,C1(=C(C(=C(C(=C1C(F)(F)F)C(F)(F)F)O)C(F)(F)F)C(F)(F)F)C(F)(F)F,723294-91-5,"2,3,4,5,6-pentakis(trifluoromethyl)phenol",DMSO,CS(=O)C,3.1,Ejoc202001649-sup-00001-misc_information.pdf
1502,"2,3,4,5,6-(CF3)5-phenol",C1(=C(C(=C(C(=C1C(F)(F)F)C(F)(F)F)O)C(F)(F)F)C(F)(F)F)C(F)(F)F,723294-91-5,"2,3,4,5,6-pentakis(trifluoromethyl)phenol",MeCN,CC#N,10.46,leito_acids
417,"2,3,4,5,6-pentakis(trifluoromethyl)benzenethiol",C1(=C(C(=C(C(=C1C(F)(F)F)C(F)(F)F)S)C(F)(F)F)C(F)(F)F)C(F)(F)F,723294-91-5,"2,3,4,5,6-pentakis(trifluoromethyl)phenol",MeCN,CC#N,10.1,DCE_2011_pKa_Table_MeCN.pdf
682,pentakis(trifluoromethyl)Thiophenol,C1(=C(C(=C(C(=C1C(F)(F)F)C(F)(F)F)S)C(F)(F)F)C(F)(F)F)C(F)(F)F,-,"2,3,4,5,6-pentakis(trifluoromethyl)benzenethiol",MeCN,CC#N,10.12,pKa_values_of_acids_in_acetonitrile.pdf
911,741243-29-8,C1(=C(C(=C(C(=C1C(F)(F)F)C(F)(F)F)S)C(F)(F)F)C(F)(F)F)C(F)(F)F,741243-29-8,"2,3,4,5,6-pentakis(trifluoromethyl)benzenethiol",MeCN,CC#N,10.12,Ejoc202001649-sup-00001-misc_information.pdf
1508,"2,3,4,5,6-(CF3)5-thiophenol",C1(=C(C(=C(C(=C1C(F)(F)F)C(F)(F)F)S)C(F)(F)F)C(F)(F)F)C(F)(F)F,741243-29-8,"2,3,4,5,6-pentakis(trifluoromethyl)benzenethiol",MeCN,CC#N,10.1,leito_acids
376,"2,3,4,5,6-pentachloroAniline",C1(=C(C(=C(C(=C1Cl)Cl)Cl)Cl)Cl)[NH3+],,"(2,3,4,5,6-pentachlorophenyl)azanium",MeCN,CC#N,2.35,pKa_values_of_nitrogen_heterocycles.pdf
47,87-86-5,C1(=C(C(=C(C(=C1Cl)Cl)Cl)Cl)Cl)O,87-86-5,"2,3,4,5,6-pentachlorophenol",MeCN,CC#N,18.02,MeCN_Acids_COSMO-RS_2008_Table.pdf
619,pentachloroPhenol,C1(=C(C(=C(C(=C1Cl)Cl)Cl)Cl)Cl)O,87-86-5,"2,3,4,5,6-pentachlorophenol",MeCN,CC#N,18,pKa_values_of_acids_in_acetonitrile.pdf
849,87-86-5,C1(=C(C(=C(C(=C1Cl)Cl)Cl)Cl)Cl)O,87-86-5,"2,3,4,5,6-pentachlorophenol",MeCN,CC#N,18,Ejoc202001649-sup-00001-misc_information.pdf
1004,87-86-5,C1(=C(C(=C(C(=C1Cl)Cl)Cl)Cl)Cl)O,87-86-5,"2,3,4,5,6-pentachlorophenol",H2O,O,4.74,Ejoc202001649-sup-00001-misc_information.pdf
1072,87-86-5,C1(=C(C(=C(C(=C1Cl)Cl)Cl)Cl)Cl)O,87-86-5,"2,3,4,5,6-pentachlorophenol",DMSO,CS(=O)C,7.18,Ejoc202001649-sup-00001-misc_information.pdf
1149,87-86-5,C1(=C(C(=C(C(=C1Cl)Cl)Cl)Cl)Cl)O,87-86-5,"2,3,4,5,6-pentachlorophenol",DMF,CN(C)C=O,7.97,Ejoc202001649-sup-00001-misc_information.pdf
1466,"2,3,4,5,6-Cl5-phenol",C1(=C(C(=C(C(=C1Cl)Cl)Cl)Cl)Cl)O,87-86-5,"2,3,4,5,6-pentachlorophenol",MeCN,CC#N,18.02,leito_acids
1443,(F3C)2(F5C6)COH,C1(=C(C(=C(C(=C1F)F)F)F)F)C(C(F)(F)F)(C(F)(F)F)O,13732-52-0,"1,1,1,3,3,3-hexafluoro-2-(2,3,4,5,6-pentafluorophenyl)propan-2-ol",MeCN,CC#N,22.15,leito_acids
1623,C6F5CH(Tf)2,C1(=C(C(=C(C(=C1F)F)F)F)F)C(S(=O)(=O)C(F)(F)F)S(=O)(=O)C(F)(F)F,405074-81-9,"1-[bis(trifluoromethylsulfonyl)methyl]-2,3,4,5,6-pentafluorobenzene",DCE,C(CCl)Cl,35.9,leito_acids
1444,C12F15COH,C1(=C(C(=C(C(=C1F)F)F)F)F)C2(C(C(C(C(C2(F)F)(F)F)(F)F)(F)F)(F)F)O,217825-01-9,"2,2,3,3,4,4,5,5,6,6-decafluoro-1-(2,3,4,5,6-pentafluorophenyl)cyclohexan-1-ol",MeCN,CC#N,22,leito_acids
800,1535-92-8,C1(=C(C(=C(C(=C1F)F)F)F)F)NC2=C(C(=C(C(=C2F)F)F)F)F,1535-92-8,"2,3,4,5,6-pentafluoro-N-(2,3,4,5,6-pentafluorophenyl)aniline",MeCN,CC#N,23.98,Ejoc202001649-sup-00001-misc_information.pdf
1048,1535-92-8,C1(=C(C(=C(C(=C1F)F)F)F)F)NC2=C(C(=C(C(=C2F)F)F)F)F,1535-92-8,"2,3,4,5,6-pentafluoro-N-(2,3,4,5,6-pentafluorophenyl)aniline",DMSO,CS(=O)C,11.6,Ejoc202001649-sup-00001-misc_information.pdf
46,771-61-9,C1(=C(C(=C(C(=C1F)F)F)F)F)O,771-61-9,"2,3,4,5,6-pentafluorophenol",MeCN,CC#N,20.11,MeCN_Acids_COSMO-RS_2008_Table.pdf
604,pentafluoroPhenol,C1(=C(C(=C(C(=C1F)F)F)F)F)O,771-61-9,"2,3,4,5,6-pentafluorophenol",MeCN,CC#N,20.1,pKa_values_of_acids_in_acetonitrile.pdf
834,771-61-9,C1(=C(C(=C(C(=C1F)F)F)F)F)O,771-61-9,"2,3,4,5,6-pentafluorophenol",MeCN,CC#N,20.1,Ejoc202001649-sup-00001-misc_information.pdf
1003,771-61-9,C1(=C(C(=C(C(=C1F)F)F)F)F)O,771-61-9,"2,3,4,5,6-pentafluorophenol",H2O,O,5.55,Ejoc202001649-sup-00001-misc_information.pdf
1065,771-61-9,C1(=C(C(=C(C(=C1F)F)F)F)F)O,771-61-9,"2,3,4,5,6-pentafluorophenol",DMSO,CS(=O)C,8.9,Ejoc202001649-sup-00001-misc_information.pdf
1455,"2,3,4,5,6-F5-phenol",C1(=C(C(=C(C(=C1F)F)F)F)F)O,771-61-9,"2,3,4,5,6-pentafluorophenol",MeCN,CC#N,20.11,leito_acids
40,2787-79-3,C1(=C(C(=C(C(=C1F)F)O)F)F)C(F)(F)F,2787-79-3,"2,3,5,6-tetrafluoro-4-(trifluoromethyl)phenol",MeCN,CC#N,16.62,MeCN_Acids_COSMO-RS_2008_Table.pdf
860,2787-79-3,C1(=C(C(=C(C(=C1F)F)O)F)F)C(F)(F)F,2787-79-3,"2,3,5,6-tetrafluoro-4-(trifluoromethyl)phenol",MeCN,CC#N,16.6,Ejoc202001649-sup-00001-misc_information.pdf
1473,"4-CF3-2,3,5,6-F4-phenol",C1(=C(C(=C(C(=C1F)F)O)F)F)C(F)(F)F,2787-79-3,"2,3,5,6-tetrafluoro-4-(trifluoromethyl)phenol",MeCN,CC#N,16.62,leito_acids
41,2894-87-3,C1(=C(C(=C(C(=C1F)F)O)F)F)C2=C(C(=C(C(=C2F)F)F)F)F,2894-87-3,"2,3,5,6-tetrafluoro-4-(2,3,4,5,6-pentafluorophenyl)phenol",MeCN,CC#N,18.11,MeCN_Acids_COSMO-RS_2008_Table.pdf
616,"4-C6F5-2,3,5,6-F4-Phenol",C1(=C(C(=C(C(=C1F)F)O)F)F)C2=C(C(=C(C(=C2F)F)F)F)F,2894-87-3,"2,3,5,6-tetrafluoro-4-(2,3,4,5,6-pentafluorophenyl)phenol",MeCN,CC#N,18.1,pKa_values_of_acids_in_acetonitrile.pdf
846,2894-87-3,C1(=C(C(=C(C(=C1F)F)O)F)F)C2=C(C(=C(C(=C2F)F)F)F)F,2894-87-3,"2,3,5,6-tetrafluoro-4-(2,3,4,5,6-pentafluorophenyl)phenol",MeCN,CC#N,18.1,Ejoc202001649-sup-00001-misc_information.pdf
1464,"4-C6F5-2,3,5,6-F4-phenol",C1(=C(C(=C(C(=C1F)F)O)F)F)C2=C(C(=C(C(=C2F)F)F)F)F,2894-87-3,"2,3,5,6-tetrafluoro-4-(2,3,4,5,6-pentafluorophenyl)phenol",MeCN,CC#N,18.11,leito_acids
817,778-36-9,C1(=C(C(=C(C(=C1F)F)S(=O)(=O)N)F)F)F,778-36-9,"2,3,4,5,6-pentafluorobenzenesulfonamide",MeCN,CC#N,22.27,Ejoc202001649-sup-00001-misc_information.pdf
996,778-36-9,C1(=C(C(=C(C(=C1F)F)S(=O)(=O)N)F)F)F,778-36-9,"2,3,4,5,6-pentafluorobenzenesulfonamide",H2O,O,8.3,Ejoc202001649-sup-00001-misc_information.pdf
451,(C6F5SO2)2NH,C1(=C(C(=C(C(=C1F)F)S(=O)(=O)NS(=O)(=O)C2=C(C(=C(C(=C2F)F)F)F)F)F)F)F,1535-93-9,"2,3,4,5,6-pentafluoro-N-(2,3,4,5,6-pentafluorophenyl)sulfonylbenzenesulfonamide",MeCN,CC#N,5.11,DCE_2011_pKa_Table_MeCN.pdf
1552,(C6F5SO2)2NH,C1(=C(C(=C(C(=C1F)F)S(=O)(=O)NS(=O)(=O)C2=C(C(=C(C(=C2F)F)F)F)F)F)F)F,1535-93-9,"2,3,4,5,6-pentafluoro-N-(2,3,4,5,6-pentafluorophenyl)sulfonylbenzenesulfonamide",MeCN,CC#N,5.11,leito_acids
122,"2,4,6-Trinitrothiophenol",C1(=C(C(=C2C(=C1S2)[N+](=O)[O-])[N+](=O)[O-])O)[N+](=O)[O-],-,"2,4,7-trinitro-6-thiabicyclo[3.1.1]hepta-1(7),2,4-trien-3-ol",MeCN,CC#N,11,MeCN_Acids_COSMO-RS_2008_Table.pdf
39,2693-66-5,C1(=C(NC(=C(C1=O)F)F)F)F,2693-66-5,"2,3,5,6-tetrafluoro-1H-pyridin-4-one",MeCN,CC#N,15.4,MeCN_Acids_COSMO-RS_2008_Table.pdf
637,4-NC5F4-OH,C1(=C(NC(=C(C1=O)F)F)F)F,2693-66-5,"2,3,5,6-tetrafluoro-1H-pyridin-4-one",MeCN,CC#N,15.39,pKa_values_of_acids_in_acetonitrile.pdf
867,2693-66-5,C1(=C(NC(=C(C1=O)F)F)F)F,2693-66-5,"2,3,5,6-tetrafluoro-1H-pyridin-4-one",MeCN,CC#N,15.39,Ejoc202001649-sup-00001-misc_information.pdf
1478,4-NC5F4-OH,C1(=C(NC(=C(C1=O)F)F)F)F,2693-66-5,"2,3,5,6-tetrafluoro-1H-pyridin-4-one",MeCN,CC#N,15.4,leito_acids
672,5-nitroBarbituric acid,C1(C(=O)NC(=O)NC1=O)[N+](=O)[O-],480-68-2,"5-nitro-1,3-diazinane-2,4,6-trione",MeCN,CC#N,10.72,pKa_values_of_acids_in_acetonitrile.pdf
901,480-68-2,C1(C(=O)NC(=O)NC1=O)[N+](=O)[O-],480-68-2,"5-nitro-1,3-diazinane-2,4,6-trione",MeCN,CC#N,10.72,Ejoc202001649-sup-00001-misc_information.pdf
1087,480-68-2,C1(C(=O)NC(=O)NC1=O)[N+](=O)[O-],480-68-2,"5-nitro-1,3-diazinane-2,4,6-trione",DMSO,CS(=O)C,0.8,Ejoc202001649-sup-00001-misc_information.pdf
1647,CF2(CF2SO2)2NH,C1(C(S(=O)(=O)NS(=O)(=O)C1(F)F)(F)F)(F)F,84246-29-7,"4,4,5,5,6,6-hexafluoro-1,3,2-dithiazinane 1,1,3,3-tetraoxide",DCE,C(CCl)Cl,31.9,leito_acids
36,63264-80-2,C1(C2=C(C3=C1C(=C(C(=C3F)F)F)F)C(=C(C(=C2F)F)F)F)C4=C(C(=C(C(=C4F)F)F)F)F,63264-80-2,"1,2,3,4,5,6,7,8-octafluoro-9-(2,3,4,5,6-pentafluorophenyl)-9H-fluorene",MeCN,CC#N,18.88,MeCN_Acids_COSMO-RS_2008_Table.pdf
250,9-C6F5-Octafluorofluorene,C1(C2=C(C3=C1C(=C(C(=C3F)F)F)F)C(=C(C(=C2F)F)F)F)C4=C(C(=C(C(=C4F)F)F)F)F,63264-80-2,"1,2,3,4,5,6,7,8-octafluoro-9-(2,3,4,5,6-pentafluorophenyl)-9H-fluorene",DCE,C(CCl)Cl,53.8,pKa_values_of_acids_and_bases_in_MeCN_DCE_DMSO_H2O_THF_C7_DME.pdf
306,9-C6F5-Octafluorofluorene,C1(C2=C(C3=C1C(=C(C(=C3F)F)F)F)C(=C(C(=C2F)F)F)F)C4=C(C(=C(C(=C4F)F)F)F)F,63264-80-2,"1,2,3,4,5,6,7,8-octafluoro-9-(2,3,4,5,6-pentafluorophenyl)-9H-fluorene",Heptane,CCCCCCC,0,pKa_values_of_acids_and_bases_in_MeCN_DCE_DMSO_H2O_THF_C7_DME.pdf
309,9-C6F5-Octafluorofluorene,C1(C2=C(C3=C1C(=C(C(=C3F)F)F)F)C(=C(C(=C2F)F)F)F)C4=C(C(=C(C(=C4F)F)F)F)F,63264-80-2,"1,2,3,4,5,6,7,8-octafluoro-9-(2,3,4,5,6-pentafluorophenyl)-9H-fluorene",DME,COCCOC.COCCOC,5.3,pKa_values_of_acids_and_bases_in_MeCN_DCE_DMSO_H2O_THF_C7_DME.pdf
470,9-C6F5-Octafluorofluorene,C1(C2=C(C3=C1C(=C(C(=C3F)F)F)F)C(=C(C(=C2F)F)F)F)C4=C(C(=C(C(=C4F)F)F)F)F,63264-80-2,"1,2,3,4,5,6,7,8-octafluoro-9-(2,3,4,5,6-pentafluorophenyl)-9H-fluorene",MeCN,CC#N,18.88,a_unified_view_to_bronsted_acidity_scales.pdf
611,9-C6F5-Octafluorofluorene,C1(C2=C(C3=C1C(=C(C(=C3F)F)F)F)C(=C(C(=C2F)F)F)F)C4=C(C(=C(C(=C4F)F)F)F)F,63264-80-2,"1,2,3,4,5,6,7,8-octafluoro-9-(2,3,4,5,6-pentafluorophenyl)-9H-fluorene",MeCN,CC#N,18.87,pKa_values_of_acids_in_acetonitrile.pdf
841,63264-80-2,C1(C2=C(C3=C1C(=C(C(=C3F)F)F)F)C(=C(C(=C2F)F)F)F)C4=C(C(=C(C(=C4F)F)F)F)F,63264-80-2,"1,2,3,4,5,6,7,8-octafluoro-9-(2,3,4,5,6-pentafluorophenyl)-9H-fluorene",MeCN,CC#N,18.87,Ejoc202001649-sup-00001-misc_information.pdf
1101,63264-80-2,C1(C2=C(C3=C1C(=C(C(=C3F)F)F)F)C(=C(C(=C2F)F)F)F)C4=C(C(=C(C(=C4F)F)F)F)F,63264-80-2,"1,2,3,4,5,6,7,8-octafluoro-9-(2,3,4,5,6-pentafluorophenyl)-9H-fluorene",DCE,C(CCl)Cl,53.8,Ejoc202001649-sup-00001-misc_information.pdf
1460,9-C6F5-octafluorofluorene,C1(C2=C(C3=C1C(=C(C(=C3F)F)F)F)C(=C(C(=C2F)F)F)F)C4=C(C(=C(C(=C4F)F)F)F)F,63264-80-2,"1,2,3,4,5,6,7,8-octafluoro-9-(2,3,4,5,6-pentafluorophenyl)-9H-fluorene",MeCN,CC#N,18.88,leito_acids
1574,9-C6F5-octafluorofluorene,C1(C2=C(C3=C1C(=C(C(=C3F)F)F)F)C(=C(C(=C2F)F)F)F)C4=C(C(=C(C(=C4F)F)F)F)F,63264-80-2,"1,2,3,4,5,6,7,8-octafluoro-9-(2,3,4,5,6-pentafluorophenyl)-9H-fluorene",DCE,C(CCl)Cl,53.8,leito_acids
353,"1,2,3-Triazole",C1=[NH+]NN=C1,-,2H-triazol-1-ium,MeCN,CC#N,7.9,pKa_values_of_nitrogen_heterocycles.pdf
397,"1,2,3-Triazole",C1=[NH+]NN=C1,-,2H-triazol-1-ium,H2O,O,1.17,pKa_values_of_nitrogen_heterocycles.pdf
1210,288-36-8,C1=[NH+]NN=C1,-,2H-triazol-1-ium,H2O,O,1.17,Bases_pKa_values_MeCN_DMSO_THF_Water.pdf
1273,288-36-8,C1=[NH+]NN=C1,-,2H-triazol-1-ium,DMSO,CS(=O)C,0,Bases_pKa_values_MeCN_DMSO_THF_Water.pdf
1343,288-36-8,C1=[NH+]NN=C1,-,2H-triazol-1-ium,MeCN,CC#N,8,Bases_pKa_values_MeCN_DMSO_THF_Water.pdf
1404,288-36-8,C1=[NH+]NN=C1,-,2H-triazol-1-ium,THF,C1CCOC1,2.5,Bases_pKa_values_MeCN_DMSO_THF_Water.pdf
364,4-nitroimidazole,C1=C([NH2+]C=N1)[N+](=O)[O-],,5-nitro-1H-imidazol-3-ium,MeCN,CC#N,6.34,pKa_values_of_nitrogen_heterocycles.pdf
403,4-nitroimidazole,C1=C([NH2+]C=N1)[N+](=O)[O-],,5-nitro-1H-imidazol-3-ium,H2O,O,-0.16,pKa_values_of_nitrogen_heterocycles.pdf
1613,Styphnic acid,C1=C(C(=C(C(=C1[N+](=O)[O-])O)[N+](=O)[O-])O)[N+](=O)[O-],82-71-3,"2,4,6-trinitrobenzene-1,3-diol",DCE,C(CCl)Cl,44.1,leito_acids
481,4-H-C6F4CH(CN)2,C1=C(C(=C(C(=C1F)F)C(C#N)C#N)F)F,55810-63-4,"2-(2,3,5,6-tetrafluorophenyl)propanedinitrile",MeCN,CC#N,12.98,a_unified_view_to_bronsted_acidity_scales.pdf
652,4-H-C6F4-CH(CN)2,C1=C(C(=C(C(=C1F)F)C(C#N)C#N)F)F,55810-63-4,"2-(2,3,5,6-tetrafluorophenyl)propanedinitrile",MeCN,CC#N,12.98,pKa_values_of_acids_in_acetonitrile.pdf
1490,4-H-C6F4CH(CN)2,C1=C(C(=C(C(=C1F)F)C(C#N)C#N)F)F,55810-63-4,"2-(2,3,5,6-tetrafluorophenyl)propanedinitrile",MeCN,CC#N,12.98,leito_acids
1584,4-H-C6F4CH(CN)2,C1=C(C(=C(C(=C1F)F)C(C#N)C#N)F)F,55810-63-4,"2-(2,3,5,6-tetrafluorophenyl)propanedinitrile",DCE,C(CCl)Cl,0,leito_acids
467,(4-H-C6F4)(C6F5)CHCN,C1=C(C(=C(C(=C1F)F)C(C#N)C2=C(C(=C(C(=C2F)F)F)F)F)F)F,42254-09-1,"2-(2,3,4,5,6-pentafluorophenyl)-2-(2,3,5,6-tetrafluorophenyl)acetonitrile",MeCN,CC#N,21.11,a_unified_view_to_bronsted_acidity_scales.pdf
594,(4-H-C6F4)(C6F5)CHCN,C1=C(C(=C(C(=C1F)F)C(C#N)C2=C(C(=C(C(=C2F)F)F)F)F)F)F,42254-09-1,"2-(2,3,4,5,6-pentafluorophenyl)-2-(2,3,5,6-tetrafluorophenyl)acetonitrile",MeCN,CC#N,21.1,pKa_values_of_acids_in_acetonitrile.pdf
1448,(4-H-C6F4)(C6F5)CHCN,C1=C(C(=C(C(=C1F)F)C(C#N)C2=C(C(=C(C(=C2F)F)F)F)F)F)F,42254-09-1,"2-(2,3,4,5,6-pentafluorophenyl)-2-(2,3,5,6-tetrafluorophenyl)acetonitrile",MeCN,CC#N,21.11,leito_acids
1571,(4-H-C6F4)(C6F5)CHCN,C1=C(C(=C(C(=C1F)F)C(C#N)C2=C(C(=C(C(=C2F)F)F)F)F)F)F,42254-09-1,"2-(2,3,4,5,6-pentafluorophenyl)-2-(2,3,5,6-tetrafluorophenyl)acetonitrile",DCE,C(CCl)Cl,55.7,leito_acids
45,769-39-1,C1=C(C(=C(C(=C1F)F)O)F)F,769-39-1,"2,3,5,6-tetrafluorophenol",MeCN,CC#N,20.12,MeCN_Acids_COSMO-RS_2008_Table.pdf
603,"2,3,5,6-tetrafluoroPhenol",C1=C(C(=C(C(=C1F)F)O)F)F,769-39-1,"2,3,5,6-tetrafluorophenol",MeCN,CC#N,20.1,pKa_values_of_acids_in_acetonitrile.pdf
833,769-39-1,C1=C(C(=C(C(=C1F)F)O)F)F,769-39-1,"2,3,5,6-tetrafluorophenol",MeCN,CC#N,20.1,Ejoc202001649-sup-00001-misc_information.pdf
1002,769-39-1,C1=C(C(=C(C(=C1F)F)O)F)F,769-39-1,"2,3,5,6-tetrafluorophenol",H2O,O,5.67,Ejoc202001649-sup-00001-misc_information.pdf
1454,"2,3,5,6-F4-phenol",C1=C(C(=C(C(=C1F)F)O)F)F,769-39-1,"2,3,5,6-tetrafluorophenol",MeCN,CC#N,20.12,leito_acids
1651,"2,3,4,5-tetracyanocyclopentadiene",C1=C(C(=C(C1C#N)C#N)C#N)C#N,77569-14-3,"cyclopenta-2,4-diene-1,2,3,4-tetracarbonitrile",DCE,C(CCl)Cl,29.9,leito_acids
573,"2,4,6-trinitroAniline",C1=C(C=C(C(=C1[N+](=O)[O-])N)[N+](=O)[O-])[N+](=O)[O-],489-98-5,"2,4,6-trinitroaniline",MeCN,CC#N,23.87,pKa_values_of_acids_in_acetonitrile.pdf
803,489-98-5,C1=C(C=C(C(=C1[N+](=O)[O-])N)[N+](=O)[O-])[N+](=O)[O-],489-98-5,"2,4,6-trinitroaniline",MeCN,CC#N,23.87,Ejoc202001649-sup-00001-misc_information.pdf
989,489-98-5,C1=C(C=C(C(=C1[N+](=O)[O-])N)[N+](=O)[O-])[N+](=O)[O-],489-98-5,"2,4,6-trinitroaniline",H2O,O,12.2,Ejoc202001649-sup-00001-misc_information.pdf
903,131-73-7,C1=C(C=C(C(=C1[N+](=O)[O-])NC2=C(C=C(C=C2[N+](=O)[O-])[N+](=O)[O-])[N+](=O)[O-])[N+](=O)[O-])[N+](=O)[O-],131-73-7,"2,4,6-trinitro-N-(2,4,6-trinitrophenyl)aniline",MeCN,CC#N,10.54,Ejoc202001649-sup-00001-misc_information.pdf
1015,131-73-7,C1=C(C=C(C(=C1[N+](=O)[O-])NC2=C(C=C(C=C2[N+](=O)[O-])[N+](=O)[O-])[N+](=O)[O-])[N+](=O)[O-])[N+](=O)[O-],131-73-7,"2,4,6-trinitro-N-(2,4,6-trinitrophenyl)aniline",H2O,O,2.63,Ejoc202001649-sup-00001-misc_information.pdf
1155,131-73-7,C1=C(C=C(C(=C1[N+](=O)[O-])NC2=C(C=C(C=C2[N+](=O)[O-])[N+](=O)[O-])[N+](=O)[O-])[N+](=O)[O-])[N+](=O)[O-],131-73-7,"2,4,6-trinitro-N-(2,4,6-trinitrophenyl)aniline",DMF,CN(C)C=O,1.28,Ejoc202001649-sup-00001-misc_information.pdf
51,Picric acid,C1=C(C=C(C(=C1[N+](=O)[O-])O)[N+](=O)[O-])[N+](=O)[O-],88-89-1,"2,4,6-trinitrophenol",MeCN,CC#N,11,MeCN_Acids_COSMO-RS_2008_Table.pdf
222,Picric acid,C1=C(C=C(C(=C1[N+](=O)[O-])O)[N+](=O)[O-])[N+](=O)[O-],88-89-1,"2,4,6-trinitrophenol",MeCN,CC#N,11,pKa_values_of_acids_and_bases_in_MeCN_DCE_DMSO_H2O_THF_C7_DME.pdf
246,Picric acid,C1=C(C=C(C(=C1[N+](=O)[O-])O)[N+](=O)[O-])[N+](=O)[O-],88-89-1,"2,4,6-trinitrophenol",DCE,C(CCl)Cl,44.6,pKa_values_of_acids_and_bases_in_MeCN_DCE_DMSO_H2O_THF_C7_DME.pdf
257,Picric acid,C1=C(C=C(C(=C1[N+](=O)[O-])O)[N+](=O)[O-])[N+](=O)[O-],88-89-1,"2,4,6-trinitrophenol",DMSO,CS(=O)C,-1,pKa_values_of_acids_and_bases_in_MeCN_DCE_DMSO_H2O_THF_C7_DME.pdf
276,Picric acid,C1=C(C=C(C(=C1[N+](=O)[O-])O)[N+](=O)[O-])[N+](=O)[O-],88-89-1,"2,4,6-trinitrophenol",H2O,O,0.3,pKa_values_of_acids_and_bases_in_MeCN_DCE_DMSO_H2O_THF_C7_DME.pdf
290,Picric acid,C1=C(C=C(C(=C1[N+](=O)[O-])O)[N+](=O)[O-])[N+](=O)[O-],88-89-1,"2,4,6-trinitrophenol",THF,C1CCOC1,11.84,pKa_values_of_acids_and_bases_in_MeCN_DCE_DMSO_H2O_THF_C7_DME.pdf
409,Picric acid,C1=C(C=C(C(=C1[N+](=O)[O-])O)[N+](=O)[O-])[N+](=O)[O-],88-89-1,"2,4,6-trinitrophenol",MeCN,CC#N,11,DCE_2011_pKa_Table_MeCN.pdf
485,Picric acid,C1=C(C=C(C(=C1[N+](=O)[O-])O)[N+](=O)[O-])[N+](=O)[O-],88-89-1,"2,4,6-trinitrophenol",MeCN,CC#N,11,a_unified_view_to_bronsted_acidity_scales.pdf
517,Picric acid,C1=C(C=C(C(=C1[N+](=O)[O-])O)[N+](=O)[O-])[N+](=O)[O-],88-89-1,"2,4,6-trinitrophenol",DMSO,CS(=O)C,-1.09,a_unified_view_to_bronsted_acidity_scales.pdf