,solute,solute SMILES,computed CAS,computed IUPAC,solvent,solvent SMILES,pka,ref
704,C6F5SO2NHSO2C6H4-4-Cl,FC1=C(F)C(=C(C(=C1F)F)[S](=O)(=O)N[S](=O)(=O)C2=CC=C(Cl)C=C2)F,1171188-85-4,"N-((4-chlorophenyl)sulfonyl)-2,3,4,5,6-pentafluorobenzenesulfonamide",MeCN,CC#N,7.55,pKa_values_of_acids_in_acetonitrile.pdf
933,1171188-85-4,FC1=C(F)C(=C(C(=C1F)F)[S](=O)(=O)N[S](=O)(=O)C2=CC=C(Cl)C=C2)F,1171188-85-4,"N-((4-chlorophenyl)sulfonyl)-2,3,4,5,6-pentafluorobenzenesulfonamide",MeCN,CC#N,7.55,Ejoc202001649-sup-00001-misc_information.pdf
1524,C6F5SO2NHSO2C6H4-4-Cl,FC1=C(F)C(=C(C(=C1F)F)[S](=O)(=O)N[S](=O)(=O)C2=CC=C(Cl)C=C2)F,1171188-85-4,"N-((4-chlorophenyl)sulfonyl)-2,3,4,5,6-pentafluorobenzenesulfonamide",MeCN,CC#N,7.57,leito_acids
227,(4-CF3-C6F4)(C6F5)CHCN,FC1=C(F)C(=C(C(C#N)C2=C(F)C(=C(C(=C2F)F)C(F)(F)F)F)C(=C1F)F)F,42238-35-7,"2-(2,3,4,5,6-pentafluorophenyl)-2-[2,3,5,6-tetrafluoro-4-(trifluoromethyl)phenyl]acetonitrile",MeCN,CC#N,18.14,pKa_values_of_acids_and_bases_in_MeCN_DCE_DMSO_H2O_THF_C7_DME.pdf
251,(4-CF3-C6F4)(C6F5)CHCN,FC1=C(F)C(=C(C(C#N)C2=C(F)C(=C(C(=C2F)F)C(F)(F)F)F)C(=C1F)F)F,42238-35-7,"2-(2,3,4,5,6-pentafluorophenyl)-2-[2,3,5,6-tetrafluoro-4-(trifluoromethyl)phenyl]acetonitrile",DCE,C(CCl)Cl,52.3,pKa_values_of_acids_and_bases_in_MeCN_DCE_DMSO_H2O_THF_C7_DME.pdf
259,(4-CF3-C6F4)(C6F5)CHCN,FC1=C(F)C(=C(C(C#N)C2=C(F)C(=C(C(=C2F)F)C(F)(F)F)F)C(=C1F)F)F,42238-35-7,"2-(2,3,4,5,6-pentafluorophenyl)-2-[2,3,5,6-tetrafluoro-4-(trifluoromethyl)phenyl]acetonitrile",DMSO,CS(=O)C,4.9,pKa_values_of_acids_and_bases_in_MeCN_DCE_DMSO_H2O_THF_C7_DME.pdf
307,(4-CF3-C6F4)(C6F5)CHCN,FC1=C(F)C(=C(C(C#N)C2=C(F)C(=C(C(=C2F)F)C(F)(F)F)F)C(=C1F)F)F,42238-35-7,"2-(2,3,4,5,6-pentafluorophenyl)-2-[2,3,5,6-tetrafluoro-4-(trifluoromethyl)phenyl]acetonitrile",Heptane,CCCCCCC,-1.39,pKa_values_of_acids_and_bases_in_MeCN_DCE_DMSO_H2O_THF_C7_DME.pdf
310,(4-CF3-C6F4)(C6F5)CHCN,FC1=C(F)C(=C(C(C#N)C2=C(F)C(=C(C(=C2F)F)C(F)(F)F)F)C(=C1F)F)F,42238-35-7,"2-(2,3,4,5,6-pentafluorophenyl)-2-[2,3,5,6-tetrafluoro-4-(trifluoromethyl)phenyl]acetonitrile",DME,COCCOC.COCCOC,3.9,pKa_values_of_acids_and_bases_in_MeCN_DCE_DMSO_H2O_THF_C7_DME.pdf
472,(4-CF3-C6F4)(C6F5)CHCN,FC1=C(F)C(=C(C(C#N)C2=C(F)C(=C(C(=C2F)F)C(F)(F)F)F)C(=C1F)F)F,42238-35-7,"2-(2,3,4,5,6-pentafluorophenyl)-2-[2,3,5,6-tetrafluoro-4-(trifluoromethyl)phenyl]acetonitrile",MeCN,CC#N,18.14,a_unified_view_to_bronsted_acidity_scales.pdf
510,(4-CF3-C6F4)(C6F5)CHCN,FC1=C(F)C(=C(C(C#N)C2=C(F)C(=C(C(=C2F)F)C(F)(F)F)F)C(=C1F)F)F,42238-35-7,"2-(2,3,4,5,6-pentafluorophenyl)-2-[2,3,5,6-tetrafluoro-4-(trifluoromethyl)phenyl]acetonitrile",DMSO,CS(=O)C,4.9,a_unified_view_to_bronsted_acidity_scales.pdf
615,(4-CF3-C6F4)(C6F5)CHCN,FC1=C(F)C(=C(C(C#N)C2=C(F)C(=C(C(=C2F)F)C(F)(F)F)F)C(=C1F)F)F,42238-35-7,"2-(2,3,4,5,6-pentafluorophenyl)-2-[2,3,5,6-tetrafluoro-4-(trifluoromethyl)phenyl]acetonitrile",MeCN,CC#N,18.13,pKa_values_of_acids_in_acetonitrile.pdf
1463,(4-CF3-C6F4)(C6F5)CHCN,FC1=C(F)C(=C(C(C#N)C2=C(F)C(=C(C(=C2F)F)C(F)(F)F)F)C(=C1F)F)F,42238-35-7,"2-(2,3,4,5,6-pentafluorophenyl)-2-[2,3,5,6-tetrafluoro-4-(trifluoromethyl)phenyl]acetonitrile",MeCN,CC#N,18.14,leito_acids
1575,(4-CF3-C6F4)(C6F5)CHCN,FC1=C(F)C(=C(C(C#N)C2=C(F)C(=C(C(=C2F)F)C(F)(F)F)F)C(=C1F)F)F,42238-35-7,"2-(2,3,4,5,6-pentafluorophenyl)-2-[2,3,5,6-tetrafluoro-4-(trifluoromethyl)phenyl]acetonitrile",DCE,C(CCl)Cl,52.3,leito_acids
6,42238-36-8,FC1=C(F)C(=C(C(C#N)C2=C(F)C(=C(Cl)C(=C2F)F)F)C(=C1F)F)F,42238-36-8,"2-(4-chloro-2,3,5,6-tetrafluorophenyl)-2-(2,3,4,5,6-pentafluorophenyl)acetonitrile",MeCN,CC#N,20.36,MeCN_Acids_COSMO-RS_2008_Table.pdf
829,42238-36-8,FC1=C(F)C(=C(C(C#N)C2=C(F)C(=C(Cl)C(=C2F)F)F)C(=C1F)F)F,42238-36-8,"2-(4-chloro-2,3,5,6-tetrafluorophenyl)-2-(2,3,4,5,6-pentafluorophenyl)acetonitrile",MeCN,CC#N,20.36,Ejoc202001649-sup-00001-misc_information.pdf
1062,42238-36-8,FC1=C(F)C(=C(C(C#N)C2=C(F)C(=C(Cl)C(=C2F)F)F)C(=C1F)F)F,42238-36-8,"2-(4-chloro-2,3,5,6-tetrafluorophenyl)-2-(2,3,4,5,6-pentafluorophenyl)acetonitrile",DMSO,CS(=O)C,7.5,Ejoc202001649-sup-00001-misc_information.pdf
1098,42238-36-8,FC1=C(F)C(=C(C(C#N)C2=C(F)C(=C(Cl)C(=C2F)F)F)C(=C1F)F)F,42238-36-8,"2-(4-chloro-2,3,5,6-tetrafluorophenyl)-2-(2,3,4,5,6-pentafluorophenyl)acetonitrile",DCE,C(CCl)Cl,54.7,Ejoc202001649-sup-00001-misc_information.pdf
4,42238-34-6,FC1=C(F)C(=C(C(C#N)C2=C(F)C(=C(F)C(=C2F)F)F)C(=C1F)F)F,42238-34-6,"2,2-bis(2,3,4,5,6-pentafluorophenyl)acetonitrile",MeCN,CC#N,21.1,MeCN_Acids_COSMO-RS_2008_Table.pdf
225,(C6F5)2CHCN,FC1=C(F)C(=C(C(C#N)C2=C(F)C(=C(F)C(=C2F)F)F)C(=C1F)F)F,42238-34-6,"2,2-bis(2,3,4,5,6-pentafluorophenyl)acetonitrile",MeCN,CC#N,21.1,pKa_values_of_acids_and_bases_in_MeCN_DCE_DMSO_H2O_THF_C7_DME.pdf
249,(C6F5)2CHCN,FC1=C(F)C(=C(C(C#N)C2=C(F)C(=C(F)C(=C2F)F)F)C(=C1F)F)F,42238-34-6,"2,2-bis(2,3,4,5,6-pentafluorophenyl)acetonitrile",DCE,C(CCl)Cl,55.7,pKa_values_of_acids_and_bases_in_MeCN_DCE_DMSO_H2O_THF_C7_DME.pdf
258,(C6F5)2CHCN,FC1=C(F)C(=C(C(C#N)C2=C(F)C(=C(F)C(=C2F)F)F)C(=C1F)F)F,42238-34-6,"2,2-bis(2,3,4,5,6-pentafluorophenyl)acetonitrile",DMSO,CS(=O)C,8,pKa_values_of_acids_and_bases_in_MeCN_DCE_DMSO_H2O_THF_C7_DME.pdf
305,(C6F5)2CHCN,FC1=C(F)C(=C(C(C#N)C2=C(F)C(=C(F)C(=C2F)F)F)C(=C1F)F)F,42238-34-6,"2,2-bis(2,3,4,5,6-pentafluorophenyl)acetonitrile",Heptane,CCCCCCC,1.8,pKa_values_of_acids_and_bases_in_MeCN_DCE_DMSO_H2O_THF_C7_DME.pdf
308,(C6F5)2CHCN,FC1=C(F)C(=C(C(C#N)C2=C(F)C(=C(F)C(=C2F)F)F)C(=C1F)F)F,42238-34-6,"2,2-bis(2,3,4,5,6-pentafluorophenyl)acetonitrile",DME,COCCOC.COCCOC,6.4,pKa_values_of_acids_and_bases_in_MeCN_DCE_DMSO_H2O_THF_C7_DME.pdf
595,(C6F5)2CHCN,FC1=C(F)C(=C(C(C#N)C2=C(F)C(=C(F)C(=C2F)F)F)C(=C1F)F)F,42238-34-6,"2,2-bis(2,3,4,5,6-pentafluorophenyl)acetonitrile",MeCN,CC#N,21.09,pKa_values_of_acids_in_acetonitrile.pdf
825,42238-34-6,FC1=C(F)C(=C(C(C#N)C2=C(F)C(=C(F)C(=C2F)F)F)C(=C1F)F)F,42238-34-6,"2,2-bis(2,3,4,5,6-pentafluorophenyl)acetonitrile",MeCN,CC#N,21.09,Ejoc202001649-sup-00001-misc_information.pdf
999,42238-34-6,FC1=C(F)C(=C(C(C#N)C2=C(F)C(=C(F)C(=C2F)F)F)C(=C1F)F)F,42238-34-6,"2,2-bis(2,3,4,5,6-pentafluorophenyl)acetonitrile",H2O,O,9.5,Ejoc202001649-sup-00001-misc_information.pdf
1059,42238-34-6,FC1=C(F)C(=C(C(C#N)C2=C(F)C(=C(F)C(=C2F)F)F)C(=C1F)F)F,42238-34-6,"2,2-bis(2,3,4,5,6-pentafluorophenyl)acetonitrile",DMSO,CS(=O)C,7.95,Ejoc202001649-sup-00001-misc_information.pdf
1449,(C6F5)2CHCN,FC1=C(F)C(=C(C(C#N)C2=C(F)C(=C(F)C(=C2F)F)F)C(=C1F)F)F,42238-34-6,"2,2-bis(2,3,4,5,6-pentafluorophenyl)acetonitrile",MeCN,CC#N,21.1,leito_acids
5,42238-35-7,FC1=C(F)C(=C(C(C#N)C2=CC=C(C=C2)C(F)(F)F)C(=C1F)F)F,42238-35-7,2-(perfluorophenyl)-2-(4-(trifluoromethyl)phenyl)acetonitrile,MeCN,CC#N,18.14,MeCN_Acids_COSMO-RS_2008_Table.pdf
845,42238-35-7,FC1=C(F)C(=C(C(C#N)C2=CC=C(C=C2)C(F)(F)F)C(=C1F)F)F,42238-35-7,2-(perfluorophenyl)-2-(4-(trifluoromethyl)phenyl)acetonitrile,MeCN,CC#N,18.13,Ejoc202001649-sup-00001-misc_information.pdf
1070,42238-35-7,FC1=C(F)C(=C(C(C#N)C2=CC=C(C=C2)C(F)(F)F)C(=C1F)F)F,42238-35-7,2-(perfluorophenyl)-2-(4-(trifluoromethyl)phenyl)acetonitrile,DMSO,CS(=O)C,4.9,Ejoc202001649-sup-00001-misc_information.pdf
1102,42238-35-7,FC1=C(F)C(=C(C(C#N)C2=CC=C(C=C2)C(F)(F)F)C(=C1F)F)F,42238-35-7,2-(perfluorophenyl)-2-(4-(trifluoromethyl)phenyl)acetonitrile,DCE,C(CCl)Cl,52.3,Ejoc202001649-sup-00001-misc_information.pdf
3,42238-33-5,FC1=C(F)C(=C(C(C#N)C2=CC=CC=C2)C(=C1F)F)F,42238-33-5,"2-(2,3,4,5,6-pentafluorophenyl)-2-phenylacetonitrile",MeCN,CC#N,26.14,MeCN_Acids_COSMO-RS_2008_Table.pdf
778,42238-33-5,FC1=C(F)C(=C(C(C#N)C2=CC=CC=C2)C(=C1F)F)F,42238-33-5,"2-(2,3,4,5,6-pentafluorophenyl)-2-phenylacetonitrile",MeCN,CC#N,26.16,Ejoc202001649-sup-00001-misc_information.pdf
1036,42238-33-5,FC1=C(F)C(=C(C(C#N)C2=CC=CC=C2)C(=C1F)F)F,42238-33-5,"2-(2,3,4,5,6-pentafluorophenyl)-2-phenylacetonitrile",DMSO,CS(=O)C,12.8,Ejoc202001649-sup-00001-misc_information.pdf
226,9-pentafluorophenylOctafluorofluorene,FC1=C(F)C(=C(C2C3=C(C(=C(F)C(=C3F)F)F)C4=C2C(=C(F)C(=C4F)F)F)C(=C1F)F)F,63264-80-2,"1,2,3,4,5,6,7,8-octafluoro-9-(2,3,4,5,6-pentafluorophenyl)-9H-fluorene",MeCN,CC#N,18.88,pKa_values_of_acids_and_bases_in_MeCN_DCE_DMSO_H2O_THF_C7_DME.pdf
32,73482-93-6,FC1=C(F)C(=C(C2C3=C(C=CC=C3)C4=C2C=CC=C4)C(=C1F)F)F,73482-93-6,"9-(2,3,4,5,6-pentafluorophenyl)-9H-fluorene",MeCN,CC#N,28.11,MeCN_Acids_COSMO-RS_2008_Table.pdf
755,73482-93-6,FC1=C(F)C(=C(C2C3=C(C=CC=C3)C4=C2C=CC=C4)C(=C1F)F)F,73482-93-6,"9-(2,3,4,5,6-pentafluorophenyl)-9H-fluorene",MeCN,CC#N,28.14,Ejoc202001649-sup-00001-misc_information.pdf
1027,73482-93-6,FC1=C(F)C(=C(C2C3=C(C=CC=C3)C4=C2C=CC=C4)C(=C1F)F)F,73482-93-6,"9-(2,3,4,5,6-pentafluorophenyl)-9H-fluorene",DMSO,CS(=O)C,14.8,Ejoc202001649-sup-00001-misc_information.pdf
11,55810-63-4,FC1=C(F)C(=C(F)C(=C1)F)C(C#N)C#N,55810-63-4,"2-(2,3,5,6-tetrafluorophenyl)propanedinitrile",MeCN,CC#N,12.98,MeCN_Acids_COSMO-RS_2008_Table.pdf
882,55810-63-4,FC1=C(F)C(=C(F)C(=C1)F)C(C#N)C#N,55810-63-4,"2-(2,3,5,6-tetrafluorophenyl)propanedinitrile",MeCN,CC#N,12.98,Ejoc202001649-sup-00001-misc_information.pdf
1112,55810-63-4,FC1=C(F)C(=C(F)C(=C1)F)C(C#N)C#N,55810-63-4,"2-(2,3,5,6-tetrafluorophenyl)propanedinitrile",DCE,C(CCl)Cl,47.5,Ejoc202001649-sup-00001-misc_information.pdf
7,42254-09-1,FC1=C(F)C(=C(F)C(=C1)F)C(C#N)C2=C(F)C(=C(F)C(=C2F)F)F,42254-09-1,"2-(2,3,4,5,6-pentafluorophenyl)-2-(2,3,5,6-tetrafluorophenyl)acetonitrile",MeCN,CC#N,21.11,MeCN_Acids_COSMO-RS_2008_Table.pdf
824,42254-09-1,FC1=C(F)C(=C(F)C(=C1)F)C(C#N)C2=C(F)C(=C(F)C(=C2F)F)F,42254-09-1,"2-(2,3,4,5,6-pentafluorophenyl)-2-(2,3,5,6-tetrafluorophenyl)acetonitrile",MeCN,CC#N,21.1,Ejoc202001649-sup-00001-misc_information.pdf
1097,42254-09-1,FC1=C(F)C(=C(F)C(=C1)F)C(C#N)C2=C(F)C(=C(F)C(=C2F)F)F,42254-09-1,"2-(2,3,4,5,6-pentafluorophenyl)-2-(2,3,5,6-tetrafluorophenyl)acetonitrile",DCE,C(CCl)Cl,55.7,Ejoc202001649-sup-00001-misc_information.pdf
15,58432-55-6,FC1=C(F)C(=C(F)C(=C1C(C#N)C2=C(F)C(=C(C(=C2F)F)C(F)(F)F)F)F)C(F)(F)F,58432-55-6,"2,2-bis[2,3,5,6-tetrafluoro-4-(trifluoromethyl)phenyl]acetonitrile",MeCN,CC#N,16.13,MeCN_Acids_COSMO-RS_2008_Table.pdf
863,58432-55-6,FC1=C(F)C(=C(F)C(=C1C(C#N)C2=C(F)C(=C(C(=C2F)F)C(F)(F)F)F)F)C(F)(F)F,58432-55-6,"2,2-bis[2,3,5,6-tetrafluoro-4-(trifluoromethyl)phenyl]acetonitrile",MeCN,CC#N,16.12,Ejoc202001649-sup-00001-misc_information.pdf
1010,58432-55-6,FC1=C(F)C(=C(F)C(=C1C(C#N)C2=C(F)C(=C(C(=C2F)F)C(F)(F)F)F)F)C(F)(F)F,58436-28-5,"2,2-bis[2,3,5,6-tetrafluoro-4-(trifluoromethyl)phenyl]acetonitrile",H2O,O,4.4,Ejoc202001649-sup-00001-misc_information.pdf
1080,58432-55-6,FC1=C(F)C(=C(F)C(=C1C(C#N)C2=C(F)C(=C(C(=C2F)F)C(F)(F)F)F)F)C(F)(F)F,58432-55-6,"2,2-bis[2,3,5,6-tetrafluoro-4-(trifluoromethyl)phenyl]acetonitrile",DMSO,CS(=O)C,3.3,Ejoc202001649-sup-00001-misc_information.pdf
19,62325-37-5,FC1=C(F)C(=C(F)C(=N1)F)C(C#N)C2=C(F)C3=C(F)C(=C(F)C(=C3C(=C2F)F)F)F,62325-37-5,"2-(1,3,4,5,6,7,8-heptafluoronaphthalen-2-yl)-2-(2,3,5,6-tetrafluoropyridin-4-yl)acetonitrile",MeCN,CC#N,16.02,MeCN_Acids_COSMO-RS_2008_Table.pdf
865,62325-37-5,FC1=C(F)C(=C(F)C(=N1)F)C(C#N)C2=C(F)C3=C(F)C(=C(F)C(=C3C(=C2F)F)F)F,62325-37-5,"2-(1,3,4,5,6,7,8-heptafluoronaphthalen-2-yl)-2-(2,3,5,6-tetrafluoropyridin-4-yl)acetonitrile",MeCN,CC#N,16.01,Ejoc202001649-sup-00001-misc_information.pdf
65,39063-00-8,FC1=CC=C(C=C1)C(=O)N[S](=O)(=O)C(F)(F)F,39063-00-8,4-fluoro-N-(trifluoromethylsulfonyl)benzamide,MeCN,CC#N,10.65,MeCN_Acids_COSMO-RS_2008_Table.pdf
902,39063-00-8,FC1=CC=C(C=C1)C(=O)N[S](=O)(=O)C(F)(F)F,39063-00-8,4-fluoro-N-(trifluoromethylsulfonyl)benzamide,MeCN,CC#N,10.65,Ejoc202001649-sup-00001-misc_information.pdf
84,500721-93-7,FC1=CC=C(C=C1)C(N[S](=O)(=O)C(F)(F)F)=N[S](=O)(=O)C(F)(F)F,500721-93-7,"4-fluoro-N,N'-bis((trifluoromethyl)sulfonyl)benzimidamide",MeCN,CC#N,5.66,MeCN_Acids_COSMO-RS_2008_Table.pdf
447,4-F-C6H4C(=NTf)NHTf,FC1=CC=C(C=C1)C(N[S](=O)(=O)C(F)(F)F)=N[S](=O)(=O)C(F)(F)F,500721-93-7,-,MeCN,CC#N,5.33,DCE_2011_pKa_Table_MeCN.pdf
729,4-F-C6H4C(=NTf)NHTf,FC1=CC=C(C=C1)C(N[S](=O)(=O)C(F)(F)F)=N[S](=O)(=O)C(F)(F)F,500721-93-7,-,MeCN,CC#N,5.29,pKa_values_of_acids_in_acetonitrile.pdf
958,500721-93-7,FC1=CC=C(C=C1)C(N[S](=O)(=O)C(F)(F)F)=N[S](=O)(=O)C(F)(F)F,500721-93-7,"4-fluoro-N,N'-bis((trifluoromethyl)sulfonyl)benzimidamide",MeCN,CC#N,5.29,Ejoc202001649-sup-00001-misc_information.pdf
1548,4-F-C6H4C(=NTf)NHTf,FC1=CC=C(C=C1)C(N[S](=O)(=O)C(F)(F)F)=N[S](=O)(=O)C(F)(F)F,500721-93-7,,MeCN,CC#N,5.33,leito_acids
947,1431711-91-9,FC1=CC=C(C=C1)C2=CC3CCCCC3C4=C2O[P](=O)(N[S](=O)(=O)C(F)(F)F)OC5=C(C=C6CCCCC6=C45)C7=CC=C(F)C=C7,1431711-91-9,-,MeCN,CC#N,6.22,Ejoc202001649-sup-00001-misc_information.pdf
1538,Substance16,FC1=CC=C(C=C1)C2=CC3CCCCC3C4=C2O[P](=O)(N[S](=O)(=O)C(F)(F)F)OC5=C(C=C6CCCCC6=C45)C7=CC=C(F)C=C7,1431711-91-9,,MeCN,CC#N,6.3,leito_acids
21,62325-51-3,FC1=NC(=C(F)C(=C1F)C(C#N)C2=C(F)C(=C(F)C(=C2F)F)F)F,62325-51-3,"2-(2,3,4,5,6-pentafluorophenyl)-2-(2,3,5,6-tetrafluoropyridin-4-yl)acetonitrile",MeCN,CC#N,16.4,MeCN_Acids_COSMO-RS_2008_Table.pdf
861,62325-51-3,FC1=NC(=C(F)C(=C1F)C(C#N)C2=C(F)C(=C(F)C(=C2F)F)F)F,62325-51-3,"2-(2,3,4,5,6-pentafluorophenyl)-2-(2,3,5,6-tetrafluoropyridin-4-yl)acetonitrile",MeCN,CC#N,16.39,Ejoc202001649-sup-00001-misc_information.pdf
1106,62325-51-3,FC1=NC(=C(F)C(=C1F)C(C#N)C2=C(F)C(=C(F)C(=C2F)F)F)F,62325-51-3,"2-(2,3,4,5,6-pentafluorophenyl)-2-(2,3,5,6-tetrafluoropyridin-4-yl)acetonitrile",DCE,C(CCl)Cl,50.5,Ejoc202001649-sup-00001-misc_information.pdf
233,HI,I,10034-85-2,iodane,MeCN,CC#N,2.8,pKa_values_of_acids_and_bases_in_MeCN_DCE_DMSO_H2O_THF_C7_DME.pdf
254,HI,I,10034-85-2,iodane,DCE,C(CCl)Cl,37.7,pKa_values_of_acids_and_bases_in_MeCN_DCE_DMSO_H2O_THF_C7_DME.pdf
265,HI,I,10034-85-2,iodane,DMSO,CS(=O)C,-10.9,pKa_values_of_acids_and_bases_in_MeCN_DCE_DMSO_H2O_THF_C7_DME.pdf
281,HI,I,10034-85-2,iodane,H2O,O,-9.5,pKa_values_of_acids_and_bases_in_MeCN_DCE_DMSO_H2O_THF_C7_DME.pdf
462,HI,I,10034-85-2,iodane,MeCN,CC#N,2.8,DCE_2011_pKa_Table_MeCN.pdf
502,HI,I,10034-85-2,iodane,MeCN,CC#N,2.8,a_unified_view_to_bronsted_acidity_scales.pdf
745,HI,I,10034-85-2,iodane,MeCN,CC#N,2.8,pKa_values_of_acids_in_acetonitrile.pdf
974,10034-85-2,I,10034-85-2,iodane,MeCN,CC#N,2.8,Ejoc202001649-sup-00001-misc_information.pdf
1021,10034-85-2,I,10034-85-2,iodane,H2O,O,-9.5,Ejoc202001649-sup-00001-misc_information.pdf
1092,10034-85-2,I,10034-85-2,iodane,DMSO,CS(=O)C,-10.9,Ejoc202001649-sup-00001-misc_information.pdf
1137,10034-85-2,I,10034-85-2,iodane,DCE,C(CCl)Cl,37.7,Ejoc202001649-sup-00001-misc_information.pdf
1563,HI,I,10034-85-2,iodane,MeCN,CC#N,2.8,leito_acids
1608,HI,I,10034-85-2,iodane,DCE,C(CCl)Cl,37.7,leito_acids
1633,[C(CN)2=C(CN)]2CH2,N#CC(CC(C#N)=C(C#N)C#N)=C(C#N)C#N,1261286-78-5,,DCE,C(CCl)Cl,33.5,leito_acids
97,"1,2,3-Tricyanocyclopentadiene",N#CC1=C(C#N)C(=CC1)C#N,-,"cyclopenta-1,3-diene-1,2,3-tricarbonitrile",MeCN,CC#N,1.44,MeCN_Acids_COSMO-RS_2008_Table.pdf
96,"1,2-Dicyanocyclopentadiene",N#CC1=C(C=CC1)C#N,-,"cyclopenta-1,3-diene-1,2-dicarbonitrile",MeCN,CC#N,10.17,MeCN_Acids_COSMO-RS_2008_Table.pdf
31,215395-09-8,N#CC1C=C(C#N)C(=C1)C#N,215395-09-8,"cyclopenta-2,5-diene-1,2,4-tricarbonitrile",MeCN,CC#N,4.16,MeCN_Acids_COSMO-RS_2008_Table.pdf
460,"2,3,5-tricyanocyclopentadiene",N#CC1C=C(C#N)C(=C1)C#N,215395-09-8,"cyclopenta-2,5-diene-1,2,4-tricarbonitrile",MeCN,CC#N,3.68,DCE_2011_pKa_Table_MeCN.pdf
500,"2,3,5-tricyanocyclopentadiene",N#CC1C=C(C#N)C(=C1)C#N,215395-09-8,"cyclopenta-2,5-diene-1,2,4-tricarbonitrile",MeCN,CC#N,3.68,a_unified_view_to_bronsted_acidity_scales.pdf
743,"2,3,5-tricyanocyclopentadiene",N#CC1C=C(C#N)C(=C1)C#N,215395-09-8,"cyclopenta-2,5-diene-1,2,4-tricarbonitrile",MeCN,CC#N,3.65,pKa_values_of_acids_in_acetonitrile.pdf
972,215395-09-8,N#CC1C=C(C#N)C(=C1)C#N,215395-09-8,"cyclopenta-2,5-diene-1,2,4-tricarbonitrile",MeCN,CC#N,3.65,Ejoc202001649-sup-00001-misc_information.pdf
1135,215395-09-8,N#CC1C=C(C#N)C(=C1)C#N,215395-09-8,"cyclopenta-2,5-diene-1,2,4-tricarbonitrile",DCE,C(CCl)Cl,38,Ejoc202001649-sup-00001-misc_information.pdf
1561,"2,3,5-Tricyano-1,3-cyclopentadiene",N#CC1C=C(C#N)C(=C1)C#N,215395-09-8,"cyclopenta-2,5-diene-1,2,4-tricarbonitrile",MeCN,CC#N,3.68,leito_acids
1606,"2,3,5-Tricyano-1,3-cyclopentadiene",N#CC1C=C(C#N)C(=C1)C#N,215395-09-8,"cyclopenta-2,5-diene-1,2,4-tricarbonitrile",DCE,C(CCl)Cl,38,leito_acids
92,133213-11-3,NC1=C(C=C(C=C1[S](F)(=O)=O)[S](F)(=O)=O)[S](F)(=O)=O,133213-11-3,"2-aminobenzene-1,3,5-trisulfonyl fluoride",MeCN,CC#N,19.66,MeCN_Acids_COSMO-RS_2008_Table.pdf
838,133213-11-3,NC1=C(C=C(C=C1[S](F)(=O)=O)[S](F)(=O)=O)[S](F)(=O)=O,133213-11-3,"2-aminobenzene-1,3,5-trisulfonyl fluoride",MeCN,CC#N,19.66,Ejoc202001649-sup-00001-misc_information.pdf
1068,133213-11-3,NC1=C(C=C(C=C1[S](F)(=O)=O)[S](F)(=O)=O)[S](F)(=O)=O,133213-11-3,"2-aminobenzene-1,3,5-trisulfonyl fluoride",DMSO,CS(=O)C,7.8,Ejoc202001649-sup-00001-misc_information.pdf
1458,"2,4,6-(SO2F)3-aniline",NC1=C(C=C(C=C1[S](F)(=O)=O)[S](F)(=O)=O)[S](F)(=O)=O,133213-11-3,"2-aminobenzene-1,3,5-trisulfonyl fluoride",MeCN,CC#N,19.66,leito_acids
884,915038-14-1,O[P]1(=O)OC2=C(C=C3C=CC=CC3=C2C4=C(O1)C(=CC5=CC=CC=C45)C6=CC=C(F)C=C6)C7CC=C(F)C=C7,915038-14-1,-,MeCN,CC#N,12.46,Ejoc202001649-sup-00001-misc_information.pdf
1492,Substance7,O[P]1(=O)OC2=C(C=C3C=CC=CC3=C2C4=C(O1)C(=CC5=CC=CC=C45)C6=CC=C(F)C=C6)C7CC=C(F)C=C7,915038-14-1,,MeCN,CC#N,12.5,leito_acids
1483,Substance2,O[P]1(=O)OC2=C3C=C(C=C2C4=CC(=CC(=C4)C5=CC=CC=C5)C6CC=CC=C6)[C]78=C9C%10=C%11[C-]7[Fe++]89%10%11%12%13%14%15[C-]%16C%12=C%13C%14=[C]%15%16C%17=CC3=C(O1)C(=C%17)C%18=CC(=CC(=C%18)C%19=CC=CC=C%19)C%20=CC=CC=C%20,1609325-04-3,,MeCN,CC#N,13.9,leito_acids
1487,Substance4,O[P]1(=O)OC2=C3C=C(C=C2C4=CC(=CC(=C4)C5=CC=CC=C5)C6CC=CC=C6)C7=CC=CC8=C9C=CC=C(C%10=CC3=C(O1)C(=C%10)C%11=CC(=CC(=C%11)C%12=CC=CC=C%12)C%13=CC=CC=C%13)C9=C78,1630950-45-6,,MeCN,CC#N,13.3,leito_acids
223,C(CN)2=C(CN)OH,OC(C#N)=C(C#N)C#N,27062-39-1,"2-hydroxyethene-1,1,2-tricarbonitrile",MeCN,CC#N,4.69,pKa_values_of_acids_and_bases_in_MeCN_DCE_DMSO_H2O_THF_C7_DME.pdf
247,C(CN)2=C(CN)OH,OC(C#N)=C(C#N)C#N,27062-39-1,"2-hydroxyethene-1,1,2-tricarbonitrile",DCE,C(CCl)Cl,35.9,pKa_values_of_acids_and_bases_in_MeCN_DCE_DMSO_H2O_THF_C7_DME.pdf
504,C(CN)2=C(CN)OH,OC(C#N)=C(C#N)C#N,27062-39-1,"2-hydroxyethene-1,1,2-tricarbonitrile",MeCN,CC#N,4.39,a_unified_view_to_bronsted_acidity_scales.pdf
52,71571-37-4,OC1=C(C=C(C=C1[S](=O)(=O)C(F)(F)F)[S](=O)(=O)C(F)(F)F)[S](=O)(=O)C(F)(F)F,71571-37-4,"2,4,6-tris((trifluoromethyl)sulfonyl)phenol",MeCN,CC#N,4.8,MeCN_Acids_COSMO-RS_2008_Table.pdf
967,71571-37-4,OC1=C(C=C(C=C1[S](=O)(=O)C(F)(F)F)[S](=O)(=O)C(F)(F)F)[S](=O)(=O)C(F)(F)F,71571-37-4,"2,4,6-tris((trifluoromethyl)sulfonyl)phenol",MeCN,CC#N,4.44,Ejoc202001649-sup-00001-misc_information.pdf
1020,71571-37-4,OC1=C(C=C(C=C1[S](=O)(=O)C(F)(F)F)[S](=O)(=O)C(F)(F)F)[S](=O)(=O)C(F)(F)F,71571-37-4,"2,4,6-tris((trifluoromethyl)sulfonyl)phenol",H2O,O,-2,Ejoc202001649-sup-00001-misc_information.pdf
1130,71571-37-4,OC1=C(C=C(C=C1[S](=O)(=O)C(F)(F)F)[S](=O)(=O)C(F)(F)F)[S](=O)(=O)C(F)(F)F,71571-37-4,"2,4,6-tris((trifluoromethyl)sulfonyl)phenol",DCE,C(CCl)Cl,38.4,Ejoc202001649-sup-00001-misc_information.pdf
926,1263293-54-4,OC1=C(C=C(C=C1[S](=O)(=O)OCC(F)(F)CF)[S](=O)(=O)OCC(F)(F)CF)[S](=O)(=O)OCC(F)(F)CF,1263293-54-4,,MeCN,CC#N,8.14,Ejoc202001649-sup-00001-misc_information.pdf
1517,"2,4,6-(SO2OCH2CF2CF2H)3-phenol",OC1=C(C=C(C=C1[S](=O)(=O)OCC(F)(F)CF)[S](=O)(=O)OCC(F)(F)CF)[S](=O)(=O)OCC(F)(F)CF,1263293-54-4,,MeCN,CC#N,8.17,leito_acids
927,1263293-53-3,OC1=C(C=C(C=C1[S](=O)(=O)OCC(F)(F)F)[S](=O)(=O)OCC(F)(F)F)[S](=O)(=O)OCC(F)(F)F,1263293-53-3,-,MeCN,CC#N,7.94,Ejoc202001649-sup-00001-misc_information.pdf
1519,"2,4,6-(SO2OCH2CF3)3-Phenol",OC1=C(C=C(C=C1[S](=O)(=O)OCC(F)(F)F)[S](=O)(=O)OCC(F)(F)F)[S](=O)(=O)OCC(F)(F)F,1263293-53-3,,MeCN,CC#N,7.97,leito_acids
48,882492-01-5,OC1=C(C=C(C=C1[S](F)(=O)=O)[S](F)(=O)=O)[S](F)(=O)=O,882492-01-5,"2-hydroxybenzene-1,3,5-trisulfonyl fluoride",MeCN,CC#N,5.53,MeCN_Acids_COSMO-RS_2008_Table.pdf
959,882492-01-5,OC1=C(C=C(C=C1[S](F)(=O)=O)[S](F)(=O)=O)[S](F)(=O)=O,882492-01-5,"2-hydroxybenzene-1,3,5-trisulfonyl fluoride",MeCN,CC#N,5.22,Ejoc202001649-sup-00001-misc_information.pdf